# vtk DataFile Version 2.0
scalar
ASCII
DATASET UNSTRUCTURED_GRID
POINTS 3567 float
-0.0009 0.0 0.0088
0.0446 0.125 0.0196
0.0901 0.25 0.0304
0.1356 0.375 0.0412
0.1811 0.5 0.0521
0.2266 0.625 0.0629
0.2721 0.75 0.0737
0.3176 0.875 0.0845
0.3631 1.0 0.0954
0.4086 1.125 0.1062
0.4541 1.25 0.117
0.4996 1.375 0.1278
0.5451 1.5 0.1387
0.5906 1.625 0.1495
0.6361 1.75 0.1603
0.6816 1.875 0.1711
0.7271 2.0 0.182
0.7726 2.125 0.1928
0.8181 2.25 0.2036
0.8636 2.375 0.2144
0.9091 2.5 0.2253
0.9546 2.625 0.2361
1.0001 2.75 0.2469
1.0456 2.875 0.2577
1.0911 3.0 0.2686
1.1366 3.125 0.2794
1.1821 3.25 0.2902
1.2276 3.375 0.3011
1.2731 3.5 0.3119
1.3186 3.625 0.3227
1.3641 3.75 0.3335
1.4096 3.875 0.3444
1.4551 4.0 0.3552
1.5006 4.125 0.366
1.5461 4.25 0.3768
1.5916 4.375 0.3877
1.6371 4.5 0.3985
1.6826 4.625 0.4093
1.7281 4.75 0.4201
1.7736 4.875 0.431
1.8191 5.0 0.4418
0.008 0.0 0.0327
0.0534 0.125 0.0432
0.0988 0.25 0.0538
0.1442 0.375 0.0643
0.1895 0.5 0.0748
0.2349 0.625 0.0854
0.2803 0.75 0.0959
0.3257 0.875 0.1064
0.371 1.0 0.117
0.4164 1.125 0.1275
0.4618 1.25 0.138
0.5072 1.375 0.1486
0.5525 1.5 0.1591
0.5979 1.625 0.1696
0.6433 1.75 0.1801
0.6887 1.875 0.1907
0.734 2.0 0.2012
0.7794 2.125 0.2117
0.8248 2.25 0.2223
0.8702 2.375 0.2328
0.9155 2.5 0.2433
0.9609 2.625 0.2539
1.0063 2.75 0.2644
1.0517 2.875 0.2749
1.097 3.0 0.2855
1.1424 3.125 0.296
1.1878 3.25 0.3065
1.2331 3.375 0.3171
1.2785 3.5 0.3276
1.3239 3.625 0.3381
1.3693 3.75 0.3487
1.4146 3.875 0.3592
1.46 4.0 0.3697
1.5054 4.125 0.3803
1.5508 4.25 0.3908
1.5961 4.375 0.4013
1.6415 4.5 0.4119
1.6869 4.625 0.4224
1.7323 4.75 0.4329
1.7776 4.875 0.4434
1.823 5.0 0.454
0.0292 0.0 0.0545
0.0743 0.125 0.0647
0.1194 0.25 0.075
0.1645 0.375 0.0853
0.2096 0.5 0.0956
0.2547 0.625 0.1058
0.2998 0.75 0.1161
0.3448 0.875 0.1264
0.3899 1.0 0.1367
0.435 1.125 0.1469
0.4801 1.25 0.1572
0.5252 1.375 0.1675
0.5703 1.5 0.1777
0.6154 1.625 0.188
0.6605 1.75 0.1983
0.7056 1.875 0.2086
0.7507 2.0 0.2188
0.7958 2.125 0.2291
0.8409 2.25 0.2394
0.886 2.375 0.2497
0.9311 2.5 0.2599
0.9762 2.625 0.2702
1.0213 2.75 0.2805
1.0664 2.875 0.2908
1.1115 3.0 0.301
1.1566 3.125 0.3113
1.2017 3.25 0.3216
1.2468 3.375 0.3319
1.2918 3.5 0.3421
1.3369 3.625 0.3524
1.382 3.75 0.3627
1.4271 3.875 0.3729
1.4722 4.0 0.3832
1.5173 4.125 0.3935
1.5624 4.25 0.4038
1.6075 4.375 0.414
1.6526 4.5 0.4243
1.6977 4.625 0.4346
1.7428 4.75 0.4449
1.7879 4.875 0.4551
1.833 5.0 0.4654
0.0579 0.0 0.0737
0.1027 0.125 0.0838
0.1474 0.25 0.0938
0.1921 0.375 0.1039
0.2368 0.5 0.1139
0.2816 0.625 0.124
0.3263 0.75 0.134
0.371 0.875 0.1441
0.4157 1.0 0.1541
0.4605 1.125 0.1642
0.5052 1.25 0.1742
0.5499 1.375 0.1843
0.5946 1.5 0.1943
0.6393 1.625 0.2044
0.6841 1.75 0.2144
0.7288 1.875 0.2245
0.7735 2.0 0.2345
0.8182 2.125 0.2446
0.863 2.25 0.2546
0.9077 2.375 0.2647
0.9524 2.5 0.2747
0.9971 2.625 0.2848
1.0418 2.75 0.2948
1.0866 2.875 0.3049
1.1313 3.0 0.3149
1.176 3.125 0.325
1.2207 3.25 0.335
1.2655 3.375 0.3451
1.3102 3.5 0.3552
1.3549 3.625 0.3652
1.3996 3.75 0.3753
1.4444 3.875 0.3853
1.4891 4.0 0.3954
1.5338 4.125 0.4054
1.5785 4.25 0.4155
1.6232 4.375 0.4255
1.668 4.5 0.4356
1.7127 4.625 0.4456
1.7574 4.75 0.4557
1.8021 4.875 0.4657
1.8469 5.0 0.4758
0.0923 0.0 0.0903
0.1366 0.125 0.1002
0.1808 0.25 0.1101
0.2251 0.375 0.1199
0.2694 0.5 0.1298
0.3137 0.625 0.1397
0.358 0.75 0.1495
0.4023 0.875 0.1594
0.4465 1.0 0.1693
0.4908 1.125 0.1791
0.5351 1.25 0.189
0.5794 1.375 0.1989
0.6237 1.5 0.2087
0.6679 1.625 0.2186
0.7122 1.75 0.2285
0.7565 1.875 0.2383
0.8008 2.0 0.2482
0.8451 2.125 0.2581
0.8894 2.25 0.2679
0.9336 2.375 0.2778
0.9779 2.5 0.2877
1.0222 2.625 0.2975
1.0665 2.75 0.3074
1.1108 2.875 0.3172
1.155 3.0 0.3271
1.1993 3.125 0.337
1.2436 3.25 0.3468
1.2879 3.375 0.3567
1.3322 3.5 0.3666
1.3765 3.625 0.3764
1.4207 3.75 0.3863
1.465 3.875 0.3962
1.5093 4.0 0.406
1.5536 4.125 0.4159
1.5979 4.25 0.4258
1.6422 4.375 0.4356
1.6864 4.5 0.4455
1.7307 4.625 0.4554
1.775 4.75 0.4652
1.8193 4.875 0.4751
1.8636 5.0 0.485
0.1309 0.0 0.1042
0.1747 0.125 0.1139
0.2185 0.25 0.1237
0.2622 0.375 0.1334
0.306 0.5 0.1431
0.3498 0.625 0.1528
0.3936 0.75 0.1625
0.4374 0.875 0.1722
0.4812 1.0 0.182
0.525 1.125 0.1917
0.5688 1.25 0.2014
0.6126 1.375 0.2111
0.6564 1.5 0.2208
0.7001 1.625 0.2305
0.7439 1.75 0.2403
0.7877 1.875 0.25
0.8315 2.0 0.2597
0.8753 2.125 0.2694
0.9191 2.25 0.2791
0.9629 2.375 0.2889
1.0067 2.5 0.2986
1.0505 2.625 0.3083
1.0943 2.75 0.318
1.138 2.875 0.3277
1.1818 3.0 0.3374
1.2256 3.125 0.3472
1.2694 3.25 0.3569
1.3132 3.375 0.3666
1.357 3.5 0.3763
1.4008 3.625 0.386
1.4446 3.75 0.3957
1.4884 3.875 0.4055
1.5322 4.0 0.4152
1.5759 4.125 0.4249
1.6197 4.25 0.4346
1.6635 4.375 0.4443
1.7073 4.5 0.454
1.7511 4.625 0.4638
1.7949 4.75 0.4735
1.8387 4.875 0.4832
1.8825 5.0 0.4929
0.1728 0.0 0.1154
0.2161 0.125 0.125
0.2593 0.25 0.1346
0.3026 0.375 0.1442
0.3458 0.5 0.1538
0.3891 0.625 0.1634
0.4324 0.75 0.173
0.4756 0.875 0.1826
0.5189 1.0 0.1922
0.5621 1.125 0.2018
0.6054 1.25 0.2114
0.6486 1.375 0.221
0.6919 1.5 0.2306
0.7352 1.625 0.2402
0.7784 1.75 0.2498
0.8217 1.875 0.2594
0.8649 2.0 0.2691
0.9082 2.125 0.2787
0.9514 2.25 0.2883
0.9947 2.375 0.2979
1.038 2.5 0.3075
1.0812 2.625 0.3171
1.1245 2.75 0.3267
1.1677 2.875 0.3363
1.211 3.0 0.3459
1.2542 3.125 0.3555
1.2975 3.25 0.3651
1.3408 3.375 0.3747
1.384 3.5 0.3843
1.4273 3.625 0.3939
1.4705 3.75 0.4035
1.5138 3.875 0.4131
1.5571 4.0 0.4227
1.6003 4.125 0.4323
1.6436 4.25 0.4419
1.6868 4.375 0.4515
1.7301 4.5 0.4612
1.7733 4.625 0.4708
1.8166 4.75 0.4804
1.8599 4.875 0.49
1.9031 5.0 0.4996
0.2174 0.0 0.1238
0.2601 0.125 0.1334
0.3028 0.25 0.1429
0.3455 0.375 0.1524
0.3882 0.5 0.162
0.4308 0.625 0.1715
0.4735 0.75 0.181
0.5162 0.875 0.1905
0.5589 1.0 0.2001
0.6016 1.125 0.2096
0.6443 1.25 0.2191
0.687 1.375 0.2287
0.7297 1.5 0.2382
0.7724 1.625 0.2477
0.8151 1.75 0.2572
0.8578 1.875 0.2668
0.9005 2.0 0.2763
0.9432 2.125 0.2858
0.9859 2.25 0.2954
1.0286 2.375 0.3049
1.0713 2.5 0.3144
1.114 2.625 0.3239
1.1567 2.75 0.3335
1.1993 2.875 0.343
1.242 3.0 0.3525
1.2847 3.125 0.362
1.3274 3.25 0.3716
1.3701 3.375 0.3811
1.4128 3.5 0.3906
1.4555 3.625 0.4002
1.4982 3.75 0.4097
1.5409 3.875 0.4192
1.5836 4.0 0.4287
1.6263 4.125 0.4383
1.669 4.25 0.4478
1.7117 4.375 0.4573
1.7544 4.5 0.4669
1.7971 4.625 0.4764
1.8398 4.75 0.4859
1.8825 4.875 0.4954
1.9251 5.0 0.505
0.264 0.0 0.1298
0.3061 0.125 0.1393
0.3482 0.25 0.1488
0.3903 0.375 0.1583
0.4324 0.5 0.1678
0.4745 0.625 0.1772
0.5166 0.75 0.1867
0.5587 0.875 0.1962
0.6009 1.0 0.2057
0.643 1.125 0.2152
0.6851 1.25 0.2247
0.7272 1.375 0.2341
0.7693 1.5 0.2436
0.8114 1.625 0.2531
0.8535 1.75 0.2626
0.8956 1.875 0.2721
0.9377 2.0 0.2816
0.9798 2.125 0.291
1.0219 2.25 0.3005
1.064 2.375 0.31
1.1061 2.5 0.3195
1.1482 2.625 0.329
1.1903 2.75 0.3385
1.2325 2.875 0.3479
1.2746 3.0 0.3574
1.3167 3.125 0.3669
1.3588 3.25 0.3764
1.4009 3.375 0.3859
1.443 3.5 0.3954
1.4851 3.625 0.4048
1.5272 3.75 0.4143
1.5693 3.875 0.4238
1.6114 4.0 0.4333
1.6535 4.125 0.4428
1.6956 4.25 0.4523
1.7377 4.375 0.4618
1.7798 4.5 0.4712
1.822 4.625 0.4807
1.8641 4.75 0.4902
1.9062 4.875 0.4997
1.9483 5.0 0.5092
0.3122 0.0 0.1336
0.3537 0.125 0.143
0.3952 0.25 0.1525
0.4367 0.375 0.162
0.4782 0.5 0.1714
0.5197 0.625 0.1809
0.5612 0.75 0.1904
0.6027 0.875 0.1998
0.6442 1.0 0.2093
0.6857 1.125 0.2188
0.7272 1.25 0.2282
0.7687 1.375 0.2377
0.8102 1.5 0.2472
0.8517 1.625 0.2566
0.8932 1.75 0.2661
0.9347 1.875 0.2756
0.9762 2.0 0.2851
1.0177 2.125 0.2945
1.0592 2.25 0.304
1.1007 2.375 0.3135
1.1422 2.5 0.3229
1.1837 2.625 0.3324
1.2252 2.75 0.3419
1.2667 2.875 0.3513
1.3082 3.0 0.3608
1.3497 3.125 0.3703
1.3912 3.25 0.3797
1.4327 3.375 0.3892
1.4742 3.5 0.3987
1.5157 3.625 0.4081
1.5572 3.75 0.4176
1.5987 3.875 0.4271
1.6402 4.0 0.4366
1.6817 4.125 0.446
1.7232 4.25 0.4555
1.7647 4.375 0.465
1.8062 4.5 0.4744
1.8477 4.625 0.4839
1.8892 4.75 0.4934
1.9307 4.875 0.5028
1.9722 5.0 0.5123
0.3615 0.0 0.1355
0.4023 0.125 0.1449
0.4432 0.25 0.1544
0.4841 0.375 0.1639
0.525 0.5 0.1734
0.5659 0.625 0.1828
0.6068 0.75 0.1923
0.6476 0.875 0.2018
0.6885 1.0 0.2113
0.7294 1.125 0.2207
0.7703 1.25 0.2302
0.8112 1.375 0.2397
0.8521 1.5 0.2492
0.8929 1.625 0.2587
0.9338 1.75 0.2681
0.9747 1.875 0.2776
1.0156 2.0 0.2871
1.0565 2.125 0.2966
1.0974 2.25 0.306
1.1382 2.375 0.3155
1.1791 2.5 0.325
1.22 2.625 0.3345
1.2609 2.75 0.3439
1.3018 2.875 0.3534
1.3427 3.0 0.3629
1.3835 3.125 0.3724
1.4244 3.25 0.3819
1.4653 3.375 0.3913
1.5062 3.5 0.4008
1.5471 3.625 0.4103
1.588 3.75 0.4198
1.6288 3.875 0.4292
1.6697 4.0 0.4387
1.7106 4.125 0.4482
1.7515 4.25 0.4577
1.7924 4.375 0.4672
1.8333 4.5 0.4766
1.8741 4.625 0.4861
1.915 4.75 0.4956
1.9559 4.875 0.5051
1.9968 5.0 0.5145
0.4116 0.0 0.1359
0.4519 0.125 0.1454
0.4921 0.25 0.1549
0.5324 0.375 0.1644
0.5727 0.5 0.174
0.6129 0.625 0.1835
0.6532 0.75 0.193
0.6934 0.875 0.2025
0.7337 1.0 0.212
0.7739 1.125 0.2215
0.8142 1.25 0.231
0.8544 1.375 0.2405
0.8947 1.5 0.25
0.935 1.625 0.2595
0.9752 1.75 0.269
1.0155 1.875 0.2785
1.0557 2.0 0.288
1.096 2.125 0.2975
1.1362 2.25 0.307
1.1765 2.375 0.3165
1.2167 2.5 0.326
1.257 2.625 0.3355
1.2972 2.75 0.345
1.3375 2.875 0.3545
1.3778 3.0 0.364
1.418 3.125 0.3735
1.4583 3.25 0.383
1.4985 3.375 0.3925
1.5388 3.5 0.402
1.579 3.625 0.4115
1.6193 3.75 0.4211
1.6595 3.875 0.4306
1.6998 4.0 0.4401
1.74 4.125 0.4496
1.7803 4.25 0.4591
1.8206 4.375 0.4686
1.8608 4.5 0.4781
1.9011 4.625 0.4876
1.9413 4.75 0.4971
1.9816 4.875 0.5066
2.0218 5.0 0.5161
0.4627 0.0 0.1354
0.5023 0.125 0.145
0.5419 0.25 0.1545
0.5816 0.375 0.1641
0.6212 0.5 0.1736
0.6608 0.625 0.1831
0.7004 0.75 0.1927
0.74 0.875 0.2022
0.7796 1.0 0.2118
0.8193 1.125 0.2213
0.8589 1.25 0.2309
0.8985 1.375 0.2404
0.9381 1.5 0.25
0.9777 1.625 0.2595
1.0173 1.75 0.269
1.0569 1.875 0.2786
1.0966 2.0 0.2881
1.1362 2.125 0.2977
1.1758 2.25 0.3072
1.2154 2.375 0.3168
1.255 2.5 0.3263
1.2946 2.625 0.3358
1.3343 2.75 0.3454
1.3739 2.875 0.3549
1.4135 3.0 0.3645
1.4531 3.125 0.374
1.4927 3.25 0.3836
1.5323 3.375 0.3931
1.572 3.5 0.4026
[...]
POINT_DATA 3567
SCALARS cp1 float
LOOKUP_TABLE default
1.06681
0.960594
0.902818
0.885817
0.866405
0.852077
0.841428
0.834407
0.824705
0.818438
0.815331
0.813249
0.80732
0.80655
0.807663
0.808973
0.806806
0.809729
0.814388
0.819697
0.820923
0.826684
0.834024
0.84139
0.844929
0.854696
0.865774
0.872314
0.883511
0.895841
0.908906
0.917205
0.931464
0.948175
0.964493
0.975293
0.991404
1.00789
1.03388
0.976523
0.869101
0.346358
0.27104
0.15806
0.111389
0.0777841
0.0494255
0.0307045
0.0162171
0.00217082
-0.00732383
-0.0130885
-0.020775
-0.0237755
-0.02435
-0.0232527
-0.0256292
-0.0229959
-0.0192913
-0.0167649
-0.0103883
-0.00283261
0.00184819
0.0122116
0.0220056
0.0302482
0.0439217
0.0583222
0.0708451
0.0883119
0.107931
0.123904
0.145585
0.169217
0.193055
0.221263
0.251198
0.280237
0.318366
0.361536
0.371257
0.278985
-0.188729
-0.26316
-0.397455
-0.453871
-0.494024
-0.522463
-0.546439
-0.565278
-0.579792
-0.588935
-0.597158
-0.603746
-0.606671
-0.608569
-0.610149
-0.610781
-0.607388
-0.60473
-0.601885
-0.595779
-0.587152
-0.580528
-0.57321
-0.563814
-0.550001
-0.536262
-0.523671
-0.509538
-0.490008
-0.472187
-0.4513
-0.425463
-0.400391
-0.373267
-0.342548
-0.306545
-0.267588
-0.22419
-0.170403
-0.121328
-0.183568
-0.414388
-0.525602
-0.640272
-0.690748
-0.725641
-0.751889
-0.772924
-0.789575
-0.799932
-0.808816
-0.816833
-0.823089
-0.826616
-0.829106
-0.830086
-0.829316
-0.827584
-0.825917
-0.82244
-0.817179
-0.811313
-0.805999
-0.799528
-0.791165
-0.779241
-0.768211
-0.75599
-0.744086
-0.731743
-0.717465
-0.698913
-0.676757
-0.65445
-0.631052
-0.605518
-0.573974
-0.53887
-0.499456
-0.453411
-0.39679
-0.394096
-0.593781
-0.700257
-0.800613
-0.846055
-0.878453
-0.902866
-0.920328
-0.933905
-0.944754
-0.953366
-0.960715
-0.965989
-0.969858
-0.973606
-0.97499
-0.972993
-0.97172
-0.969599
-0.965258
-0.962897
-0.960448
-0.953834
-0.945427
-0.93732
-0.930778
-0.922657
-0.910135
-0.898185
-0.885569
-0.870302
-0.855392
-0.839568
-0.818925
-0.796666
-0.77283
-0.744258
-0.711796
-0.67516
-0.630952
-0.562847
-0.512716
-0.7178
-0.807019
-0.890806
-0.931699
-0.959667
-0.980617
-0.996262
-1.00892
-1.02002
-1.02839
-1.03364
-1.03635
-1.0387
-1.04302
-1.04681
-1.04639
-1.04465
-1.04239
-1.04009
-1.03931
-1.03633
-1.02958
-1.02216
-1.01607
-1.01111
-1.00454
-0.994503
-0.982518
-0.968744
-0.953527
-0.940484
-0.928392
-0.911491
-0.890314
-0.866432
-0.839421
-0.811707
-0.780061
-0.739158
-0.654724
-0.561867
-0.801178
-0.86561
-0.929279
-0.963726
-0.988686
-1.00764
-1.02177
-1.03204
-1.04008
-1.04676
-1.05204
-1.05637
-1.05897
-1.05979
-1.06052
-1.06225
-1.06438
-1.06531
-1.0642
-1.06031
-1.05538
-1.05074
-1.04695
-1.0431
-1.03613
-1.02776
-1.01945
-1.00887
-0.998094
-0.987762
-0.974451
-0.958889
-0.94242
-0.923855
-0.902528
-0.881099
-0.858987
-0.82887
-0.788703
-0.691434
-0.56797
-0.836862
-0.88061
-0.92622
-0.954397
-0.976793
-0.993309
-1.00508
-1.01444
-1.02196
-1.02812
-1.03364
-1.03837
-1.04092
-1.04089
-1.04062
-1.0416
-1.04172
-1.04154
-1.04098
-1.03724
-1.03257
-1.02946
-1.0274
-1.02345
-1.01529
-1.00732
-1.00178
-0.994234
-0.985794
-0.977849
-0.965357
-0.948879
-0.933801
-0.919303
-0.90082
-0.88053
-0.857525
-0.824982
-0.783925
-0.68126
-0.540223
-0.835042
-0.861672
-0.893293
-0.916364
-0.933184
-0.9458
-0.95605
-0.964328
-0.971569
-0.97816
-0.981862
-0.983346
-0.985089
-0.987295
-0.989772
-0.990953
-0.988391
-0.985075
-0.984117
-0.983092
-0.980977
-0.979443
-0.976432
-0.969845
-0.963151
-0.957897
-0.953435
-0.948462
-0.940358
-0.929078
-0.918058
-0.908452
-0.89777
-0.88425
-0.867979
-0.84725
-0.820013
-0.787736
-0.749922
-0.645247
-0.494574
-0.808149
-0.819808
-0.838624
-0.855452
-0.866876
-0.877014
-0.886212
-0.892693
-0.898039
-0.902704
-0.905481
-0.907921
-0.910499
-0.912118
-0.913556
-0.915004
-0.915168
-0.913562
-0.912094
-0.910877
-0.909126
-0.907401
-0.903673
-0.898672
-0.895447
-0.891328
-0.884568
-0.878801
-0.87207
-0.861666
-0.851864
-0.843841
-0.83324
-0.818795
-0.804571
-0.786855
-0.761978
-0.7341
-0.698142
-0.59275
-0.438432
-0.759033
-0.763138
-0.771282
-0.783605
-0.794019
-0.802688
-0.809752
-0.815654
-0.819466
-0.821639
-0.82434
-0.828184
-0.83125
-0.832565
-0.831981
-0.83147
-0.832242
-0.831902
-0.829557
-0.827736
-0.826822
-0.824385
-0.820277
-0.817601
-0.815573
-0.812193
-0.806036
-0.79907
-0.793276
-0.787805
-0.780146
-0.769689
-0.758244
-0.74628
-0.733282
-0.716442
-0.694685
-0.668805
-0.63204
-0.530891
-0.381268
-0.70624
-0.707313
-0.708491
-0.717136
-0.72672
-0.734727
-0.740436
-0.745077
-0.748194
-0.750754
-0.753243
-0.755245
-0.756507
-0.757324
-0.757058
-0.755951
-0.755594
-0.755134
-0.753631
-0.751817
-0.750339
-0.747478
-0.745204
-0.743627
-0.740405
-0.736339
-0.731819
-0.725815
-0.719477
-0.715432
-0.710468
-0.702279
-0.692293
-0.681616
-0.66812
-0.651544
-0.631375
-0.604205
-0.565777
-0.471758
-0.333023
-0.670617
-0.666851
-0.664555
-0.669066
-0.673885
-0.678197
-0.682248
-0.685464
-0.688404
-0.69149
-0.694208
-0.695968
-0.697062
-0.697235
-0.697002
-0.696822
-0.696425
-0.696724
-0.696969
-0.696176
-0.693535
-0.690929
-0.689575
-0.686985
-0.682938
-0.679286
-0.675985
-0.670891
-0.664582
-0.659129
-0.652825
-0.645416
-0.637068
-0.627145
-0.614736
-0.599781
-0.580703
-0.55383
-0.514495
-0.426796
-0.301238
-0.643777
-0.634761
-0.629952
-0.631489
-0.633272
-0.634613
-0.636447
-0.639229
-0.642006
-0.644045
-0.646058
-0.648106
-0.649409
-0.650011
-0.650915
-0.651251
-0.650804
-0.650991
-0.651187
-0.65049
-0.648873
-0.647343
-0.645173
-0.641082
-0.636762
-0.633644
-0.630467
-0.626097
-0.621438
-0.616137
-0.60933
-0.60179
-0.593729
-0.584858
-0.573556
-0.559078
-0.540983
-0.51561
-0.475921
-0.394181
-0.284183
-0.612988
-0.602145
-0.594868
-0.593714
-0.594466
-0.596372
-0.598564
-0.601255
-0.603702
-0.605322
-0.606423
-0.607031
-0.607657
-0.608703
-0.609784
-0.609634
-0.6089
-0.608208
-0.607026
-0.605676
-0.604696
-0.603487
-0.601468
-0.599927
-0.598275
-0.595117
-0.591389
-0.587349
-0.582078
-0.575893
-0.570745
-0.565185
-0.55717
-0.547161
-0.53541
-0.521421
-0.503596
-0.478328
-0.438917
-0.364023
-0.266888
-0.581906
-0.570622
-0.562728
-0.560769
-0.560352
-0.561785
-0.56388
-0.565128
-0.566316
-0.567959
-0.568571
-0.568177
-0.568455
-0.569557
-0.569903
-0.569842
-0.570259
-0.569483
-0.567387
-0.565934
-0.56551
-0.564398
-0.562761
-0.561971
-0.560852
-0.557857
-0.554388
-0.551721
-0.54752
-0.541087
-0.535183
-0.529678
-0.52156
-0.510859
-0.499464
-0.486551
-0.468603
-0.443167
-0.404601
-0.335869
-0.248146
-0.553752
-0.541467
-0.532845
-0.530798
-0.530274
-0.530313
-0.530718
-0.530682
-0.530798
-0.531329
-0.531672
-0.531863
-0.532392
-0.53346
-0.534373
-0.535538
-0.536182
-0.535426
-0.53424
-0.532933
-0.531671
-0.529895
-0.527299
-0.524507
-0.521585
-0.518927
-0.516556
-0.514784
-0.512937
-0.508986
-0.502934
-0.496007
-0.488219
-0.478938
-0.46791
-0.454502
-0.436565
-0.411362
-0.373077
-0.310958
-0.235287
-0.526397
-0.513707
-0.504059
-0.500028
-0.498426
-0.497796
-0.497594
-0.497809
-0.498291
-0.498665
-0.499313
-0.500232
-0.500656
-0.50042
-0.500434
-0.50052
-0.500132
-0.499802
-0.499556
-0.499031
-0.498286
-0.49691
-0.494382
-0.491632
-0.489048
-0.486577
-0.483423
-0.479842
-0.476565
-0.472953
-0.468051
-0.461926
-0.455313
-0.447677
-0.437741
-0.424584
-0.4078
-0.383787
-0.345836
-0.289859
-0.22628
-0.498409
-0.485691
-0.47524
-0.470059
-0.467387
-0.466333
-0.466115
-0.466404
-0.467113
-0.46783
-0.468606
-0.469491
-0.469391
-0.468234
-0.467307
-0.466684
-0.466298
-0.465996
-0.465291
-0.464758
-0.464189
-0.463105
-0.462138
-0.46112
-0.45949
-0.456704
-0.452521
-0.448111
-0.444217
-0.440503
-0.436428
-0.431463
-0.425529
-0.41849
-0.409521
-0.397687
-0.38218
-0.359348
-0.322078
-0.270617
-0.215276
-0.473494
-0.459828
-0.44886
-0.442983
-0.439299
-0.437407
-0.43668
-0.436486
-0.436742
-0.436798
-0.436515
-0.436784
-0.437289
-0.437496
-0.437331
-0.436648
-0.43638
-0.436709
-0.436954
-0.436807
-0.434915
-0.431836
-0.430339
-0.429646
-0.428341
-0.426637
-0.423987
-0.4206
-0.417224
-0.41384
-0.409918
-0.404671
-0.397867
-0.390352
-0.38147
-0.370072
-0.354674
-0.331741
-0.296001
-0.251335
-0.20558
-0.449088
-0.435369
-0.424386
-0.417828
-0.413772
-0.411292
-0.409603
-0.408237
-0.407535
-0.407287
-0.407012
-0.407024
-0.407155
-0.407172
-0.40699
-0.406541
-0.406354
-0.406752
-0.4075
-0.407722
-0.406809
-0.405497
-0.404296
-0.402639
-0.400492
-0.398458
-0.396597
-0.39445
-0.391132
-0.386842
-0.382226
-0.377088
-0.370811
-0.3629
-0.353056
-0.341047
-0.325163
-0.302564
-0.269679
-0.233065
-0.197975
-0.42186
-0.40912
-0.398306
-0.391974
-0.388591
-0.385949
-0.383579
-0.381645
-0.380125
-0.380004
-0.38082
-0.380755
-0.379821
-0.379213
-0.379598
-0.38047
-0.380297
-0.378964
-0.377647
-0.376325
-0.376101
-0.37721
-0.376395
-0.37392
-0.371768
-0.369563
-0.368075
-0.366288
-0.362889
-0.358767
-0.353979
-0.34955
-0.345135
-0.33815
-0.328471
-0.316108
-0.300189
-0.279153
-0.248432
-0.217469
-0.191876
-0.394387
-0.382974
-0.373174
-0.367249
-0.362879
-0.35922
-0.356669
-0.355626
-0.354751
-0.354374
-0.354476
-0.353613
-0.353001
-0.353283
-0.353478
-0.353694
-0.353165
-0.352489
-0.351876
-0.350158
-0.348721
-0.34826
-0.346878
-0.345387
-0.344743
-0.343687
-0.341978
-0.339134
-0.335574
-0.33228
-0.32773
-0.323044
-0.319251
-0.313608
-0.305104
-0.293282
-0.277925
-0.258284
-0.228244
-0.201663
-0.184348
-0.371178
-0.35922
-0.349296
-0.342832
-0.337439
-0.333399
-0.331091
-0.330482
-0.330215
-0.329188
-0.327885
-0.326818
-0.327213
-0.328006
-0.327759
-0.327159
-0.326264
-0.325826
-0.325761
-0.325248
-0.324403
-0.323478
-0.322881
-0.321705
-0.319724
-0.31797
-0.316052
-0.313729
-0.310849
-0.307725
-0.304237
-0.299563
-0.294456
-0.288226
-0.279559
-0.268824
-0.255151
-0.237083
-0.208669
-0.186101
-0.174386
-0.349434
-0.33643
-0.325191
-0.317573
-0.312691
-0.309889
-0.308114
-0.306611
-0.305139
-0.303295
-0.302177
-0.302328
-0.302864
-0.303086
-0.302914
-0.302505
-0.301957
-0.300867
-0.299911
-0.299756
-0.299692
-0.299443
-0.299546
-0.2983
-0.295297
-0.292919
-0.291324
-0.289898
-0.288289
-0.285883
-0.282999
-0.278317
-0.271334
-0.264319
-0.257108
-0.248102
-0.235572
-0.217761
-0.19008
-0.171913
-0.166966
-0.325653
-0.313301
-0.302488
-0.294802
-0.289964
-0.287429
-0.285672
-0.283484
-0.281416
-0.279907
-0.279305
-0.279744
-0.27989
-0.279523
-0.278811
-0.277815
-0.277647
-0.277919
-0.277714
-0.277304
-0.27643
-0.274789
-0.273583
-0.273104
-0.271746
-0.270069
-0.268573
-0.266874
-0.265097
-0.262286
-0.258572
-0.254363
-0.248961
-0.243151
-0.236972
-0.227975
-0.214736
-0.196246
-0.170012
-0.158213
-0.162525
-0.300207
-0.289495
-0.280205
-0.273909
-0.268902
-0.264871
-0.261838
-0.259917
-0.259086
-0.258628
-0.257878
-0.257603
-0.257394
-0.256553
-0.255549
-0.255055
-0.255339
-0.255877
-0.255399
-0.254108
-0.253269
-0.251899
-0.250468
-0.249521
-0.248473
-0.247225
-0.245447
-0.24298
-0.240069
-0.237107
-0.234326
-0.231248
-0.226656
-0.220559
-0.213462
-0.204856
-0.193348
-0.177236
-0.152932
-0.144924
-0.154542
-0.277059
-0.266365
-0.257
-0.250703
-0.246004
-0.242034
-0.238284
-0.235833
-0.235067
-0.235059
-0.235145
-0.234921
-0.234007
-0.232529
-0.232015
-0.232493
-0.232668
-0.232412
-0.231299
-0.229911
-0.229473
-0.229376
-0.228745
-0.22777
-0.227217
-0.226024
-0.223432
-0.221037
-0.21883
-0.216657
-0.21442
-0.210636
-0.205348
-0.199358
-0.192514
-0.184555
-0.174576
-0.160856
-0.138603
-0.132746
-0.1457
-0.256592
-0.245139
-0.235348
-0.227848
-0.222777
-0.219657
-0.217032
-0.21467
-0.212807
-0.212042
-0.212009
-0.211202
-0.210002
-0.20981
-0.210454
-0.210346
-0.209272
-0.208165
-0.208032
-0.208421
-0.20795
-0.206807
-0.205271
-0.20448
-0.204482
-0.203406
-0.201246
-0.199474
-0.198513
-0.196364
-0.192497
-0.188061
-0.183921
-0.180176
-0.17416
-0.164972
-0.15371
-0.140269
-0.121205
-0.120885
-0.139659
-0.231741
-0.221928
-0.212847
-0.20582
-0.200823
-0.197212
-0.194947
-0.193354
-0.191591
-0.19035
-0.189219
-0.187924
-0.1875
-0.188329
-0.188621
-0.187575
-0.186434
-0.185876
-0.186348
-0.186611
-0.186049
-0.185288
-0.183947
-0.182943
-0.182081
-0.18097
-0.179803
-0.177882
-0.176535
-0.174718
-0.171312
-0.167651
-0.163836
-0.160257
-0.154901
-0.146414
-0.136058
-0.123244
-0.105488
-0.109571
-0.134705
-0.209236
-0.198809
-0.189445
-0.183305
-0.178885
-0.175061
-0.172428
-0.171065
-0.170255
-0.169005
-0.167571
-0.166826
-0.166667
-0.166727
-0.166253
-0.165623
-0.165649
-0.165869
-0.165602
-0.164771
-0.164168
-0.164256
-0.163959
-0.16285
-0.161811
-0.161102
-0.160242
-0.158298
-0.155581
-0.153389
-0.151795
-0.149427
-0.14562
-0.140867
-0.135734
-0.129283
-0.120201
-0.108581
-0.0917119
-0.0984942
-0.129539
-0.189589
-0.177756
-0.168351
-0.16211
-0.157247
-0.153747
-0.151893
-0.15062
-0.149398
-0.147713
-0.146659
-0.146707
-0.146353
-0.145608
-0.145457
-0.145691
-0.145559
-0.14474
-0.144012
-0.144049
-0.14354
-0.142367
-0.141527
-0.140962
-0.140553
-0.139551
-0.1386
-0.137901
-0.135317
-0.131999
-0.12991
-0.128158
-0.125832
-0.121152
-0.115445
-0.109609
-0.100862
-0.0897803
-0.0739669
-0.0841414
-0.119714
-0.164483
-0.154803
-0.146725
-0.140715
-0.135551
-0.132222
-0.130258
-0.128213
-0.126366
-0.125751
-0.12578
-0.125758
-0.125278
-0.124242
-0.123715
-0.124092
-0.124022
-0.123122
-0.12254
-0.122683
-0.122215
-0.120876
-0.120538
-0.120629
-0.119598
-0.117636
-0.115948
-0.114982
-0.114066
-0.112255
-0.109386
-0.106786
-0.104395
-0.100123
-0.0941964
-0.0887024
-0.0826814
-0.0734087
-0.0576363
-0.0698819
-0.108324
-0.141945
-0.132338
-0.124593
-0.118768
-0.114182
-0.110739
-0.107778
-0.105216
-0.104311
-0.105043
-0.10513
-0.103974
-0.102967
-0.101947
-0.101064
-0.100936
-0.101715
-0.102221
-0.101848
-0.1009
-0.100123
-0.099817
-0.100046
-0.0994313
-0.0978316
-0.0966109
-0.0958363
-0.0942588
-0.0931438
-0.0928222
-0.0908773
-0.0876501
-0.08372
-0.0797438
-0.0754874
-0.0710301
-0.0663659
-0.058661
-0.0443976
-0.0587282
-0.100385
-0.120131
-0.109066
-0.100552
-0.0947935
-0.0913282
-0.08885
-0.0863957
-0.0845011
-0.0833727
-0.0825702
-0.0817338
-0.080779
-0.0800461
-0.0799213
-0.0799585
-0.0798003
-0.0792919
-0.078521
-0.0780801
-0.0777989
-0.0777891
-0.0775584
-0.0767001
-0.0757261
-0.0752499
-0.0752443
-0.0748368
-0.073348
-0.0717236
-0.0709459
-0.0698582
-0.0675595
-0.0641008
-0.0604608
-0.0567877
-0.0523132
-0.0464853
-0.0390698
-0.0277465
-0.0460734
-0.0928125
-0.0909352
-0.0819939
-0.0735711
-0.0685829
-0.0656093
-0.0635266
-0.0620294
-0.0612674
-0.0596195
-0.0570774
-0.0555756
-0.0553202
-0.0557384
-0.0565562
-0.0569206
-0.0563229
-0.0550067
-0.053861
-0.0533435
-0.0530766
-0.0530096
-0.0529761
-0.0530789
-0.0530983
-0.0529311
-0.0517583
-0.049668
-0.0482464
-0.0470726
-0.0455685
-0.0441291
-0.0432139
-0.0418743
-0.0385403
-0.0336881
-0.028283
-0.0228473
-0.0175079
-0.00828821
-0.0297229
-0.0787353
-0.0708177
-0.0613056
-0.053831
-0.0491297
-0.0450891
-0.0418856
-0.0402135
-0.0397032
-0.0387211
-0.037506
-0.0370379
-0.0370809
-0.0374965
-0.0373215
-0.0362937
-0.035185
-0.0347781
-0.0355082
-0.0356139
-0.034659
-0.0335798
-0.0332503
-0.033355
-0.0326767
-0.0318704
-0.0313467
-0.0307707
-0.0306186
-0.0296048
-0.0273808
-0.025274
-0.0232773
-0.0214595
-0.0190707
-0.0154028
-0.0107483
-0.00638097
-0.00282188
0.00524733
-0.0178433
-0.0701408
-0.0586848
-0.0444097
-0.0380486
-0.03371
-0.0301908
-0.0275442
-0.0259497
-0.024882
-0.0242514
-0.0237553
-0.022898
-0.0218277
-0.0213145
-0.0205061
-0.0196361
-0.019414
-0.0195089
-0.0201104
-0.0203914
-0.0203695
-0.0202397
-0.0198401
-0.0186722
-0.0174856
-0.0168863
-0.0164027
-0.016237
-0.0158972
-0.015231
-0.0141743
-0.0129618
-0.0101147
-0.0063504
-0.00405528
-0.00230776
0.000248398
0.00350118
0.00686991
0.0139483
-0.0107171
-0.0708295
-0.0258389
-0.00759236
-0.00323095
0.000666832
0.00309233
0.00443437
0.00565058
0.00674519
0.0076882
0.0089326
0.0105394
0.0114354
0.0117175
0.0116922
0.0117075
0.0118495
0.0120272
0.012011
0.0119154
0.0114969
0.0114418
0.0119603
0.0125905
0.0126917
0.0133736
0.015039
0.0167793
0.0178261
0.0183247
0.018582
0.0190965
0.0204273
0.0227361
0.0244851
0.0259926
0.0276564
0.0299043
0.0329367
0.0400388
0.0142959
-0.052875
0.0778627
0.0905134
0.0942619
0.0975177
0.0995404
0.100797
0.101936
0.102916
0.103903
0.104987
0.105361
0.104826
0.104516
0.104456
0.104734
0.105495
0.105958
0.106102
0.106203
0.10621
0.106592
0.107553
0.108099
0.108089
0.108344
0.109251
0.110632
0.111688
0.11217
0.112644
0.113314
0.113749
0.114139
0.115037
0.116277
0.117523
0.118751
0.120064
0.121346
0.0866522
0.0129401
0.255066
0.258741
0.261113
0.262557
0.263712
0.264577
0.265505
0.266161
0.267095
0.26784
0.267058
0.265326
0.265152
0.265342
0.265876
0.267125
0.267776
0.268115
0.268411
0.268501
0.269054
0.270583
0.271163
0.27111
0.270783
0.270524
0.271095
0.272014
0.272347
0.272627
0.273412
0.273398
0.272845
0.272915
0.273671
0.273895
0.27376
0.273444
0.277753
0.224317
0.127943
0.274491
0.280286
0.282983
0.282289
0.283205
0.284837
0.285565
0.28629
0.286404
0.28528
0.28532
0.285854
0.285626
0.285819
0.285556
0.284091
0.283904
0.28422
0.283449
0.283641
0.283221
0.281519
0.281295
0.281767
0.28167
0.2824
0.282055
0.280922
0.281307
0.281435
0.280489
0.280209
0.280766
0.280673
0.279832
0.279907
0.279968
0.277961
0.28103
0.237735
0.155697
0.128023
0.141016
0.14402
0.145396
0.14631
0.146803
0.147298
0.147936
0.148255
0.147863
0.148197
0.14874
0.148967
0.149454
0.149322
0.148646
0.148435
0.148591
0.1481
0.148109
0.147719
0.146874
0.146559
0.146547
0.146088
0.145167
0.144258
0.143358
0.143469
0.143084
0.142022
0.141128
0.140926
0.140439
0.139579
0.139169
0.137855
0.134033
0.126151
0.087834
0.0123341
0.048796
0.0644913
0.0669197
0.0690894
0.0699683
0.0702963
0.0707854
0.0713367
0.0714112
0.0712691
0.0715774
0.0722141
0.0728614
0.0733234
0.0731581
0.0724627
0.0721699
0.0725559
0.0730194
0.0730845
0.0728323
0.0724619
0.0720295
0.0715315
0.0704227
0.0683699
0.0667547
0.0662722
0.0661217
0.0656391
0.0647318
0.0637283
0.0626423
0.061869
0.0612573
0.060273
0.0585343
0.05468
0.0484854
0.0151721
-0.0543318
0.032891
0.0426008
0.0458982
0.0480732
0.0495269
0.0512525
0.0526359
0.0531096
0.0532543
0.053106
0.0528326
0.0528337
0.0531291
0.0528878
0.0523036
0.0518546
0.0514957
0.0520438
0.0532575
0.053084
0.0521468
0.0517203
0.0512407
0.0509661
0.0502158
0.0482401
0.0466416
0.0460892
0.0453287
0.0449375
0.0454491
0.0449595
0.0431478
0.0415126
0.0400635
0.0377073
0.0351521
0.0321365
0.0266034
-0.00279588
-0.0559753
0.0303706
0.0356479
0.039429
0.0414591
0.0431895
0.0447936
0.0455927
0.0459108
0.0469181
0.0478179
0.0475939
0.0468021
0.0462488
0.0460267
0.0462942
0.0466933
0.0463779
0.0459874
0.0460288
0.0453899
0.0438596
0.0425868
0.0424048
0.042958
0.0430276
0.0423827
0.041354
0.0402301
0.0386262
0.0377205
0.0384324
0.03813
0.0358678
0.0330599
0.030933
0.0290245
0.0269128
0.0243692
0.0189102
-0.00799003
-0.0510089
0.022545
0.0261789
0.0299152
0.0324021
0.034011
0.0346216
0.0348583
0.0350113
0.0355265
0.0366419
0.0372487
0.037005
0.0364714
0.0365591
0.0375398
0.0380109
0.0371967
0.0359526
0.035409
0.0357246
0.035388
0.0341216
0.0330287
0.0325336
0.0327545
0.0327785
0.0318056
0.0303813
0.0287957
0.0274754
0.0268805
0.025778
0.0236633
0.0212996
0.0199365
0.0192684
0.0173842
0.0138043
0.00778059
-0.0155806
-0.0504281
0.00894838
0.0130711
0.0163282
0.0189021
0.0201505
0.0205618
0.0212945
0.0223612
0.0226843
0.0224419
0.0224837
0.0232665
0.0238729
0.0234925
0.0230486
0.0231883
0.023123
0.0221359
0.0208832
0.0210396
0.0220063
0.0215079
0.019555
0.0182035
0.0185577
0.0183824
0.0163794
0.0144642
0.0139775
0.0135838
0.0114884
0.00894678
0.00793688
0.00793509
0.00651326
0.00349224
0.000990671
-0.00136261
-0.00681979
-0.0276875
-0.0599513
0.000214967
0.00301494
0.00515344
0.00697637
0.0086814
0.00985584
0.0102318
0.0105652
0.0111656
0.0112032
0.0107858
0.01094
0.0117426
0.0118081
0.0109995
0.0107212
0.0109573
0.01073
0.00984613
0.00931826
0.00940343
0.00889344
0.00768801
0.00645918
0.00588449
0.00550104
0.00402315
0.00213768
0.00150105
0.00105939
-0.00118013
-0.004061
-0.00544198
-0.00556087
-0.00747398
-0.0114418
-0.0141169
-0.0156443
-0.0196501
-0.0369252
-0.0640845
-0.00911365
-0.00633404
-0.00434375
-0.00300366
-0.00139525
0.000387661
0.000904179