# vtk DataFile Version 2.0
scalar
ASCII
DATASET UNSTRUCTURED_GRID
POINTS 987 float
-0.0009 0.0 0.0088
0.0901 0.25 0.0304
0.1811 0.5 0.0521
0.2721 0.75 0.0737
0.3631 1.0 0.0954
0.4541 1.25 0.117
0.5451 1.5 0.1387
0.6361 1.75 0.1603
0.7271 2.0 0.182
0.8181 2.25 0.2036
0.9091 2.5 0.2253
1.0001 2.75 0.2469
1.0911 3.0 0.2686
1.1821 3.25 0.2902
1.2731 3.5 0.3119
1.3641 3.75 0.3335
1.4551 4.0 0.3552
1.5461 4.25 0.3768
1.6371 4.5 0.3985
1.7281 4.75 0.4201
1.8191 5.0 0.4418
0.0292 0.0 0.0545
0.1194 0.25 0.075
0.2096 0.5 0.0956
0.2998 0.75 0.1161
0.3899 1.0 0.1367
0.4801 1.25 0.1572
0.5703 1.5 0.1777
0.6605 1.75 0.1983
0.7507 2.0 0.2188
0.8409 2.25 0.2394
0.9311 2.5 0.2599
1.0213 2.75 0.2805
1.1115 3.0 0.301
1.2017 3.25 0.3216
1.2918 3.5 0.3421
1.382 3.75 0.3627
1.4722 4.0 0.3832
1.5624 4.25 0.4038
1.6526 4.5 0.4243
1.7428 4.75 0.4449
1.833 5.0 0.4654
0.0923 0.0 0.0903
0.1808 0.25 0.1101
0.2694 0.5 0.1298
0.358 0.75 0.1495
0.4465 1.0 0.1693
0.5351 1.25 0.189
0.6237 1.5 0.2087
0.7122 1.75 0.2285
0.8008 2.0 0.2482
0.8894 2.25 0.2679
0.9779 2.5 0.2877
1.0665 2.75 0.3074
1.155 3.0 0.3271
1.2436 3.25 0.3468
1.3322 3.5 0.3666
1.4207 3.75 0.3863
1.5093 4.0 0.406
1.5979 4.25 0.4258
1.6864 4.5 0.4455
1.775 4.75 0.4652
1.8636 5.0 0.485
0.1728 0.0 0.1154
0.2593 0.25 0.1346
0.3458 0.5 0.1538
0.4324 0.75 0.173
0.5189 1.0 0.1922
0.6054 1.25 0.2114
0.6919 1.5 0.2306
0.7784 1.75 0.2498
0.8649 2.0 0.2691
0.9514 2.25 0.2883
1.038 2.5 0.3075
1.1245 2.75 0.3267
1.211 3.0 0.3459
1.2975 3.25 0.3651
1.384 3.5 0.3843
1.4705 3.75 0.4035
1.5571 4.0 0.4227
1.6436 4.25 0.4419
1.7301 4.5 0.4612
1.8166 4.75 0.4804
1.9031 5.0 0.4996
0.264 0.0 0.1298
0.3482 0.25 0.1488
0.4324 0.5 0.1678
0.5166 0.75 0.1867
0.6009 1.0 0.2057
0.6851 1.25 0.2247
0.7693 1.5 0.2436
0.8535 1.75 0.2626
0.9377 2.0 0.2816
1.0219 2.25 0.3005
1.1061 2.5 0.3195
1.1903 2.75 0.3385
1.2746 3.0 0.3574
1.3588 3.25 0.3764
1.443 3.5 0.3954
1.5272 3.75 0.4143
1.6114 4.0 0.4333
1.6956 4.25 0.4523
1.7798 4.5 0.4712
1.8641 4.75 0.4902
1.9483 5.0 0.5092
0.3615 0.0 0.1355
0.4432 0.25 0.1544
0.525 0.5 0.1734
0.6068 0.75 0.1923
0.6885 1.0 0.2113
0.7703 1.25 0.2302
0.8521 1.5 0.2492
0.9338 1.75 0.2681
1.0156 2.0 0.2871
1.0974 2.25 0.306
1.1791 2.5 0.325
1.2609 2.75 0.3439
1.3427 3.0 0.3629
1.4244 3.25 0.3819
1.5062 3.5 0.4008
1.588 3.75 0.4198
1.6697 4.0 0.4387
1.7515 4.25 0.4577
1.8333 4.5 0.4766
1.915 4.75 0.4956
1.9968 5.0 0.5145
0.4627 0.0 0.1354
0.5419 0.25 0.1545
0.6212 0.5 0.1736
0.7004 0.75 0.1927
0.7796 1.0 0.2118
0.8589 1.25 0.2309
0.9381 1.5 0.25
1.0173 1.75 0.269
1.0966 2.0 0.2881
1.1758 2.25 0.3072
1.255 2.5 0.3263
1.3343 2.75 0.3454
1.4135 3.0 0.3645
1.4927 3.25 0.3836
1.572 3.5 0.4026
1.6512 3.75 0.4217
1.7304 4.0 0.4408
1.8096 4.25 0.4599
1.8889 4.5 0.479
1.9681 4.75 0.4981
2.0473 5.0 0.5172
0.5676 0.0 0.1319
0.6442 0.25 0.1512
0.7208 0.5 0.1705
0.7974 0.75 0.1898
0.874 1.0 0.2092
0.9506 1.25 0.2285
1.0272 1.5 0.2478
1.1039 1.75 0.2671
1.1805 2.0 0.2864
1.2571 2.25 0.3057
1.3337 2.5 0.325
1.4103 2.75 0.3443
1.4869 3.0 0.3637
1.5635 3.25 0.383
1.6401 3.5 0.4023
1.7167 3.75 0.4216
1.7934 4.0 0.4409
1.87 4.25 0.4602
1.9466 4.5 0.4795
2.0232 4.75 0.4988
2.0998 5.0 0.5182
0.6755 0.0 0.1254
0.7494 0.25 0.145
0.8233 0.5 0.1647
0.8972 0.75 0.1843
0.9711 1.0 0.2039
1.0451 1.25 0.2235
1.119 1.5 0.2431
1.1929 1.75 0.2627
1.2668 2.0 0.2824
1.3407 2.25 0.302
1.4147 2.5 0.3216
1.4886 2.75 0.3412
1.5625 3.0 0.3608
1.6364 3.25 0.3804
1.7103 3.5 0.4001
1.7842 3.75 0.4197
1.8582 4.0 0.4393
1.9321 4.25 0.4589
2.006 4.5 0.4785
2.0799 4.75 0.4981
2.1538 5.0 0.5177
0.7854 0.0 0.1164
0.8566 0.25 0.1364
0.9278 0.5 0.1564
0.9989 0.75 0.1764
1.0701 1.0 0.1964
1.1413 1.25 0.2164
1.2125 1.5 0.2364
1.2837 1.75 0.2563
1.3548 2.0 0.2763
1.426 2.25 0.2963
1.4972 2.5 0.3163
1.5684 2.75 0.3363
1.6395 3.0 0.3563
1.7107 3.25 0.3762
1.7819 3.5 0.3962
1.8531 3.75 0.4162
1.9243 4.0 0.4362
1.9954 4.25 0.4562
2.0666 4.5 0.4762
2.1378 4.75 0.4962
2.209 5.0 0.5161
0.8967 0.0 0.1054
0.9651 0.25 0.1258
1.0335 0.5 0.1462
1.1019 0.75 0.1666
1.1703 1.0 0.187
1.2387 1.25 0.2074
1.3071 1.5 0.2278
1.3755 1.75 0.2482
1.4439 2.0 0.2686
1.5123 2.25 0.2891
1.5807 2.5 0.3095
1.6491 2.75 0.3299
1.7176 3.0 0.3503
1.786 3.25 0.3707
1.8544 3.5 0.3911
1.9228 3.75 0.4115
1.9912 4.0 0.4319
2.0596 4.25 0.4523
2.128 4.5 0.4727
2.1964 4.75 0.4931
2.2648 5.0 0.5135
1.0085 0.0 0.0926
1.0741 0.25 0.1135
1.1397 0.5 0.1344
1.2054 0.75 0.1552
1.271 1.0 0.1761
1.3366 1.25 0.197
1.4022 1.5 0.2178
1.4679 1.75 0.2387
1.5335 2.0 0.2596
1.5991 2.25 0.2805
1.6647 2.5 0.3013
1.7304 2.75 0.3222
1.796 3.0 0.3431
1.8616 3.25 0.364
1.9272 3.5 0.3848
1.9929 3.75 0.4057
2.0585 4.0 0.4266
2.1241 4.25 0.4475
2.1897 4.5 0.4683
2.2554 4.75 0.4892
2.321 5.0 0.5101
1.1202 0.0 0.0785
1.183 0.25 0.0998
1.2458 0.5 0.1212
1.3087 0.75 0.1426
1.3715 1.0 0.164
1.4344 1.25 0.1853
1.4972 1.5 0.2067
1.5601 1.75 0.2281
1.6229 2.0 0.2495
1.6858 2.25 0.2708
1.7486 2.5 0.2922
1.8115 2.75 0.3136
1.8743 3.0 0.3349
1.9372 3.25 0.3563
2.0 3.5 0.3777
2.0629 3.75 0.3991
2.1257 4.0 0.4204
2.1886 4.25 0.4418
2.2514 4.5 0.4632
2.3143 4.75 0.4846
2.3771 5.0 0.5059
1.231 0.0 0.0633
1.2911 0.25 0.0852
1.3512 0.5 0.1071
1.4113 0.75 0.129
1.4714 1.0 0.1509
1.5315 1.25 0.1728
1.5916 1.5 0.1947
1.6517 1.75 0.2166
1.7117 2.0 0.2385
1.7718 2.25 0.2604
1.8319 2.5 0.2823
1.892 2.75 0.3041
1.9521 3.0 0.326
2.0122 3.25 0.3479
2.0723 3.5 0.3698
2.1324 3.75 0.3917
2.1925 4.0 0.4136
2.2526 4.25 0.4355
2.3127 4.5 0.4574
2.3728 4.75 0.4793
2.4329 5.0 0.5012
1.3403 0.0 0.0473
1.3977 0.25 0.0697
1.455 0.5 0.0921
1.5124 0.75 0.1146
1.5698 1.0 0.137
1.6272 1.25 0.1595
1.6845 1.5 0.1819
1.7419 1.75 0.2044
1.7993 2.0 0.2268
1.8567 2.25 0.2492
1.9141 2.5 0.2717
1.9714 2.75 0.2941
2.0288 3.0 0.3166
2.0862 3.25 0.339
2.1436 3.5 0.3615
2.2009 3.75 0.3839
2.2583 4.0 0.4063
2.3157 4.25 0.4288
2.3731 4.5 0.4512
2.4305 4.75 0.4737
2.4878 5.0 0.4961
1.4472 0.0 0.0307
1.5019 0.25 0.0537
1.5567 0.5 0.0767
1.6114 0.75 0.0997
1.6661 1.0 0.1227
1.7208 1.25 0.1457
1.7756 1.5 0.1687
1.8303 1.75 0.1917
1.885 2.0 0.2147
1.9397 2.25 0.2377
1.9944 2.5 0.2607
2.0492 2.75 0.2837
2.1039 3.0 0.3067
2.1586 3.25 0.3297
2.2133 3.5 0.3527
2.2681 3.75 0.3757
2.3228 4.0 0.3987
2.3775 4.25 0.4217
2.4322 4.5 0.4447
2.4869 4.75 0.4677
2.5417 5.0 0.4907
1.551 0.0 0.0139
1.6032 0.25 0.0375
1.6553 0.5 0.061
1.7075 0.75 0.0846
1.7596 1.0 0.1081
1.8118 1.25 0.1317
1.8639 1.5 0.1553
1.9161 1.75 0.1788
1.9682 2.0 0.2024
2.0203 2.25 0.2259
2.0725 2.5 0.2495
2.1246 2.75 0.273
2.1768 3.0 0.2966
2.2289 3.25 0.3201
2.2811 3.5 0.3437
2.3332 3.75 0.3672
2.3854 4.0 0.3908
2.4375 4.25 0.4143
2.4897 4.5 0.4379
2.5418 4.75 0.4614
2.5939 5.0 0.485
1.6504 0.0 -0.0028
1.7001 0.25 0.0213
1.7498 0.5 0.0454
1.7995 0.75 0.0695
1.8492 1.0 0.0936
1.8988 1.25 0.1177
1.9485 1.5 0.1418
1.9982 1.75 0.1659
2.0479 2.0 0.19
2.0975 2.25 0.2141
2.1472 2.5 0.2382
2.1969 2.75 0.2623
2.2466 3.0 0.2864
2.2963 3.25 0.3105
2.3459 3.5 0.3346
2.3956 3.75 0.3587
2.4453 4.0 0.3828
2.495 4.25 0.4069
2.5447 4.5 0.431
2.5943 4.75 0.4551
2.644 5.0 0.4792
1.7447 0.0 -0.0194
1.792 0.25 0.0053
1.8394 0.5 0.0299
1.8867 0.75 0.0545
1.9341 1.0 0.0792
1.9814 1.25 0.1038
2.0287 1.5 0.1285
2.0761 1.75 0.1531
2.1234 2.0 0.1777
2.1708 2.25 0.2024
2.2181 2.5 0.227
2.2654 2.75 0.2517
2.3128 3.0 0.2763
2.3601 3.25 0.3009
2.4075 3.5 0.3256
2.4548 3.75 0.3502
2.5021 4.0 0.3749
2.5495 4.25 0.3995
2.5968 4.5 0.4241
2.6442 4.75 0.4488
2.6915 5.0 0.4734
1.8371 0.0 -0.0364
1.8821 0.25 -0.0112
1.9272 0.5 0.014
1.9722 0.75 0.0392
2.0173 1.0 0.0644
2.0623 1.25 0.0895
2.1074 1.5 0.1147
2.1524 1.75 0.1399
2.1975 2.0 0.1651
2.2425 2.25 0.1903
2.2876 2.5 0.2155
2.3326 2.75 0.2407
2.3777 3.0 0.2659
2.4227 3.25 0.291
2.4678 3.5 0.3162
2.5128 3.75 0.3414
2.5579 4.0 0.3666
2.6029 4.25 0.3918
2.648 4.5 0.417
2.693 4.75 0.4422
2.7381 5.0 0.4673
1.9988 0.0 -0.0698
2.0398 0.25 -0.0436
2.0809 0.5 -0.0173
2.1219 0.75 0.0089
2.163 1.0 0.0351
2.204 1.25 0.0614
2.2451 1.5 0.0876
2.2861 1.75 0.1138
2.3271 2.0 0.1401
2.3682 2.25 0.1663
2.4092 2.5 0.1925
2.4503 2.75 0.2188
2.4913 3.0 0.245
2.5324 3.25 0.2713
2.5734 3.5 0.2975
2.6145 3.75 0.3237
2.6555 4.0 0.35
2.6966 4.25 0.3762
2.7376 4.5 0.4024
2.7787 4.75 0.4287
2.8197 5.0 0.4549
-0.0009 0.0 0.0088
0.0901 0.25 0.0304
0.1811 0.5 0.0521
0.2721 0.75 0.0737
0.3631 1.0 0.0954
0.4541 1.25 0.117
0.5451 1.5 0.1387
0.6361 1.75 0.1603
0.7271 2.0 0.182
0.8181 2.25 0.2036
0.9091 2.5 0.2253
1.0001 2.75 0.2469
1.0911 3.0 0.2686
1.1821 3.25 0.2902
1.2731 3.5 0.3119
1.3641 3.75 0.3335
1.4551 4.0 0.3552
1.5461 4.25 0.3768
1.6371 4.5 0.3985
1.7281 4.75 0.4201
1.8191 5.0 0.4418
0.029 0.0 -0.0286
0.1193 0.25 -0.0059
0.2096 0.5 0.0167
0.2999 0.75 0.0393
0.3902 1.0 0.0619
0.4805 1.25 0.0846
0.5708 1.5 0.1072
0.6612 1.75 0.1298
0.7515 2.0 0.1524
0.8418 2.25 0.1751
0.9321 2.5 0.1977
1.0224 2.75 0.2203
1.1127 3.0 0.2429
1.203 3.25 0.2656
1.2933 3.5 0.2882
1.3836 3.75 0.3108
1.4739 4.0 0.3334
1.5642 4.25 0.3561
1.6545 4.5 0.3787
1.7448 4.75 0.4013
1.8351 5.0 0.4239
0.0907 0.0 -0.0471
0.1795 0.25 -0.024
0.2683 0.5 -0.0008
0.357 0.75 0.0224
0.4458 1.0 0.0456
0.5346 1.25 0.0687
0.6234 1.5 0.0919
0.7122 1.75 0.1151
0.801 2.0 0.1382
0.8897 2.25 0.1614
0.9785 2.5 0.1846
1.0673 2.75 0.2078
1.1561 3.0 0.2309
1.2449 3.25 0.2541
1.3337 3.5 0.2773
1.4224 3.75 0.3004
1.5112 4.0 0.3236
1.6 4.25 0.3468
1.6888 4.5 0.3699
1.7776 4.75 0.3931
1.8664 5.0 0.4163
0.1655 0.0 -0.0606
0.2525 0.25 -0.037
0.3394 0.5 -0.0134
0.4263 0.75 0.0102
0.5133 1.0 0.0338
0.6002 1.25 0.0574
0.6871 1.5 0.081
0.774 1.75 0.1046
0.861 2.0 0.1282
0.9479 2.25 0.1519
1.0348 2.5 0.1755
1.1217 2.75 0.1991
1.2087 3.0 0.2227
1.2956 3.25 0.2463
1.3825 3.5 0.2699
1.4695 3.75 0.2935
1.5564 4.0 0.3171
1.6433 4.25 0.3407
1.7302 4.5 0.3643
1.8172 4.75 0.3879
1.9041 5.0 0.4115
0.2498 0.0 -0.0736
0.3346 0.25 -0.0496
0.4194 0.5 -0.0255
0.5043 0.75 -0.0015
0.5891 1.0 0.0225
0.674 1.25 0.0466
0.7588 1.5 0.0706
0.8436 1.75 0.0947
0.9285 2.0 0.1187
1.0133 2.25 0.1428
1.0981 2.5 0.1668
1.183 2.75 0.1908
1.2678 3.0 0.2149
1.3526 3.25 0.2389
1.4375 3.5 0.263
1.5223 3.75 0.287
[...]
POINT_DATA 987
SCALARS cp1 float
LOOKUP_TABLE default
0.509829
0.429497
0.363111
0.313237
0.271627
0.236581
0.20864
0.191973
0.181731
0.179631
0.186284
0.201021
0.220359
0.248127
0.285129
0.329657
0.377524
0.43372
0.460135
0.553699
0.723851
-0.0400722
-0.0706616
-0.132655
-0.157458
-0.174356
-0.18521
-0.191186
-0.192824
-0.189763
-0.184105
-0.174041
-0.160581
-0.143547
-0.123965
-0.0991657
-0.0708938
-0.0373994
0.00153722
0.0336919
0.146056
0.299124
-0.558028
-0.527965
-0.579381
-0.582997
-0.582604
-0.578615
-0.57296
-0.56603
-0.556935
-0.547243
-0.536529
-0.52386
-0.509001
-0.493418
-0.477244
-0.457534
-0.434644
-0.407721
-0.387616
-0.267253
-0.146916
-0.73754
-0.701819
-0.727104
-0.722988
-0.718471
-0.712918
-0.707078
-0.701303
-0.694541
-0.686459
-0.677133
-0.66616
-0.653424
-0.639587
-0.625074
-0.608353
-0.589615
-0.568693
-0.556133
-0.461232
-0.367394
-0.686997
-0.661144
-0.662743
-0.655425
-0.64886
-0.642783
-0.636655
-0.630929
-0.624946
-0.6175
-0.609319
-0.600474
-0.590501
-0.580666
-0.569973
-0.557186
-0.543204
-0.526503
-0.5146
-0.452765
-0.378286
-0.554866
-0.536368
-0.524365
-0.516103
-0.509274
-0.503182
-0.49735
-0.491622
-0.485478
-0.479057
-0.47285
-0.465923
-0.458678
-0.451606
-0.443068
-0.433396
-0.423373
-0.410274
-0.397696
-0.360435
-0.304351
-0.415754
-0.403578
-0.385984
-0.378094
-0.371945
-0.366529
-0.3613
-0.355537
-0.349784
-0.344849
-0.340001
-0.33486
-0.329988
-0.323897
-0.315917
-0.308244
-0.300684
-0.29116
-0.279422
-0.260424
-0.22562
-0.317213
-0.304804
-0.28819
-0.280493
-0.274702
-0.26961
-0.264815
-0.260208
-0.255843
-0.251436
-0.246952
-0.242886
-0.239258
-0.234935
-0.229511
-0.223623
-0.217006
-0.208712
-0.196283
-0.189398
-0.180868
-0.242804
-0.230622
-0.216909
-0.209521
-0.203474
-0.198327
-0.194042
-0.190561
-0.187414
-0.183877
-0.180072
-0.176498
-0.17288
-0.169511
-0.166505
-0.162796
-0.157758
-0.151102
-0.138918
-0.141213
-0.15453
-0.179563
-0.168948
-0.157257
-0.150373
-0.144793
-0.14047
-0.136792
-0.133179
-0.130201
-0.127915
-0.125839
-0.123428
-0.120338
-0.116997
-0.114285
-0.111606
-0.108371
-0.103996
-0.0934651
-0.104132
-0.134061
-0.126661
-0.117187
-0.106925
-0.10002
-0.0948461
-0.0910012
-0.0877509
-0.0847736
-0.0826189
-0.0812777
-0.0798352
-0.078334
-0.0767865
-0.0747612
-0.0723807
-0.0702202
-0.0681861
-0.064734
-0.0545885
-0.0725611
-0.116253
-0.0795611
-0.0715624
-0.0628075
-0.0564863
-0.0517938
-0.0481626
-0.0453584
-0.0434872
-0.0421958
-0.0407773
-0.039438
-0.0387281
-0.0383756
-0.0377509
-0.0367836
-0.0358342
-0.034973
-0.0327268
-0.0234547
-0.0471616
-0.102099
-0.0378137
-0.0308532
-0.0235273
-0.0183032
-0.0143264
-0.0111876
-0.009174
-0.00798765
-0.00695741
-0.00574925
-0.0049523
-0.00441795
-0.00395218
-0.00400711
-0.00463148
-0.00496101
-0.00483355
-0.00404032
0.00345783
-0.0250308
-0.0881694
-0.00108445
0.00575748
0.01213
0.0167976
0.0200863
0.02235
0.0237499
0.0246586
0.0253522
0.0256731
0.0258246
0.0261772
0.0261572
0.0253547
0.0241157
0.0232117
0.0224538
0.02185
0.0284574
-0.0039947
-0.0735026
0.0354724
0.0417397
0.0473103
0.0513737
0.0539692
0.0555839
0.0564862
0.0568744
0.057017
0.0565783
0.0555922
0.0544291
0.0529421
0.0511377
0.0492694
0.0475255
0.0454408
0.0432905
0.0489695
0.0132611
-0.0631006
0.0720285
0.0773473
0.0819849
0.0851913
0.0871813
0.0880761
0.0882443
0.0878974
0.0872028
0.0859857
0.0841052
0.0820021
0.0796465
0.0769367
0.0740512
0.070905
0.0674028
0.0638724
0.0684838
0.0300841
-0.0517465
0.108603
0.112733
0.116738
0.11925
0.120568
0.120754
0.120135
0.119156
0.117714
0.11587
0.113605
0.111035
0.107966
0.104387
0.100733
0.0965338
0.0920356
0.0869698
0.090531
0.0494895
-0.0352696
0.115641
0.13441
0.131664
0.132375
0.133012
0.132879
0.132312
0.131358
0.129897
0.127845
0.125595
0.122857
0.119367
0.115491
0.111246
0.106611
0.101865
0.0961358
0.0985435
0.0582822
-0.0422827
0.360003
0.298086
0.331904
0.329698
0.326466
0.322878
0.318518
0.313267
0.307438
0.300385
0.292928
0.284662
0.275404
0.265874
0.254696
0.242453
0.230121
0.215988
0.222753
0.160301
0.114037
0.166902
0.0902554
0.130201
0.132502
0.133348
0.134288
0.133751
0.13295
0.131936
0.130332
0.127883
0.125945
0.124066
0.12319
0.119641
0.115075
0.110435
0.103885
0.111539
0.00989439
-0.110293
-0.83059
-0.812035
-0.800823
-0.786483
-0.768153
-0.748094
-0.730248
-0.711536
-0.688826
-0.667678
-0.645241
-0.620234
-0.59025
-0.555993
-0.525788
-0.497132
-0.463519
-0.435813
-0.374323
-0.562183
-0.926436
-24.3426
-24.2633
-25.271
-26.6436
-27.8605
-28.8621
-29.6587
-30.1946
-30.6493
-30.9315
-31.0763
-31.0112
-30.8532
-30.486
-29.9916
-29.2924
-28.4909
-27.5184
-26.451
-26.5845
-27.9899
-4.31658
-6.6153
-5.98159
-6.32368
-6.61183
-6.88026
-7.07086
-7.18432
-7.28758
-7.37614
-7.39604
-7.37879
-7.32977
-7.26712
-7.12948
-6.9513
-6.73811
-6.52721
-6.21792
-7.32772
-5.53996
4.07913
1.6333
2.42974
2.51439
2.61712
2.70468
2.77301
2.82622
2.86725
2.88462
2.89811
2.8972
2.88487
2.85593
2.81553
2.75559
2.68947
2.61503
2.61685
1.71017
4.23988
0.196127
0.225879
0.227076
0.236873
0.243896
0.24981
0.254696
0.258746
0.261434
0.263142
0.264477
0.26547
0.265406
0.26485
0.263468
0.260875
0.257384
0.253836
0.249929
0.212085
0.10241
0.113618
0.135626
0.131703
0.13745
0.142129
0.145483
0.148077
0.15025
0.151655
0.152686
0.153818
0.154401
0.154423
0.154291
0.153472
0.151868
0.149496
0.147588
0.147604
0.109603
0.00130483
0.136816
0.136423
0.134634
0.138055
0.141056
0.143233
0.144758
0.14608
0.147173
0.14796
0.148551
0.148761
0.148393
0.14786
0.147469
0.146936
0.145756
0.144126
0.144319
0.105353
0.0245188
0.154018
0.144833
0.143066
0.144725
0.145866
0.146962
0.148151
0.149168
0.150125
0.150967
0.151364
0.151456
0.15115
0.150226
0.149422
0.14898
0.148127
0.146813
0.147681
0.113565
0.0523784
0.148189
0.138193
0.134951
0.135879
0.136609
0.137382
0.138319
0.138908
0.139274
0.139722
0.139858
0.139826
0.139883
0.139317
0.138335
0.137357
0.136084
0.134839
0.136237
0.108316
0.0569837
0.131157
0.122559
0.118268
0.118755
0.119484
0.120192
0.120784
0.120993
0.12077
0.120573
0.120573
0.120537
0.120553
0.120543
0.12016
0.118928
0.117532
0.116508
0.118188
0.0952946
0.0502143
0.113787
0.1061
0.10172
0.101598
0.10174
0.101897
0.101981
0.102108
0.102171
0.101924
0.101649
0.101367
0.100849
0.100692
0.100926
0.100416
0.0995018
0.0985833
0.100525
0.0817001
0.043057
0.0964361
0.0897003
0.0855882
0.0850669
0.0848939
0.0847118
0.0844856
0.0844823
0.0847442
0.0847699
0.0843104
0.0836715
0.0829518
0.0823144
0.0820567
0.0820666
0.0816196
0.080452
0.0826777
0.0678027
0.0352041
0.0786172
0.073319
0.0696811
0.0691708
0.069155
0.0691779
0.0689146
0.0684851
0.068111
0.0679715
0.0676326
0.0670296
0.0667032
0.0661807
0.0651749
0.0644608
0.0638672
0.0628421
0.0656843
0.0550498
0.0290507
0.0632098
0.0587692
0.0557512
0.0554135
0.0552351
0.055035
0.0547565
0.0544084
0.0538876
0.053417
0.0531248
0.0527032
0.0521152
0.0513107
0.0499194
0.0486619
0.0479411
0.047134
0.0505137
0.0440961
0.0250829
0.050013
0.0462153
0.04378
0.0434483
0.0429314
0.0422882
0.0417568
0.0415304
0.041161
0.0404593
0.040079
0.0396119
0.0387623
0.0379786
0.037049
0.036294
0.0357924
0.0348599
0.0380336
0.0353061
0.0233444
0.0377266
0.0349005
0.0328769
0.0323836
0.0317426
0.0311258
0.0305326
0.0299112
0.0293164
0.0285947
0.0278395
0.0271745
0.0267502
0.0265812
0.0263548
0.0258354
0.0250051
0.0240956
0.0271666
0.0281362
0.0237846
0.027224
0.0252694
0.0237046
0.023027
0.0223134
0.0217948
0.0212806
0.0204546
0.0198527
0.0192837
0.0183074
0.017601
0.0170317
0.0160183
0.0152843
0.0145644
0.0136861
0.013266
0.0161697
0.0210542
0.0241972
0.0200974
0.0178131
0.0173745
0.016799
0.016134
0.0154049
0.0145705
0.0137352
0.0130407
0.0122694
0.0112661
0.0104421
0.00953997
0.00821519
0.00716441
0.00647367
0.00616754
0.00596448
0.00795775
0.0164599
0.0294323
0.0178871
0.00816127
0.00899905
0.00900154
0.00810633
0.00727062
0.00647958
0.00577021
0.00488499
0.00406048
0.00337764
0.00252186
0.00146046
0.000671567
1.95814e-05
-0.000781764
-0.00109767
-0.00117078
-0.000748926
0.0100653
0.0356537
-0.129958
-0.0835846
-0.110871
-0.109908
-0.109249
-0.108255
-0.106624
-0.105045
-0.103523
-0.101478
-0.0990014
-0.0965024
-0.0943197
-0.0915599
-0.0883845
-0.0852891
-0.0813313
-0.0761175
-0.0808329
-0.0489576
-0.0496238
0.0605386
0.113847
0.0850217
0.0827662
0.0804593
0.0781693
0.0760918
0.0738698
0.0710384
0.0684143
0.0658755
0.0628821
0.0593794
0.0554142
0.0518297
0.0481736
0.0442934
0.0416624
0.0311408
0.0915204
0.157551
0.844447
0.831895
0.825353
0.815338
0.80194
0.786832
0.771475
0.754614
0.735233
0.715652
0.694095
0.670793
0.644602
0.615862
0.58726
0.557781
0.52347
0.490245
0.436585
0.552336
0.784249
-1.64152
-1.04613
-0.689365
-0.60948
-0.512762
-0.441073
-0.382113
-0.335478
-0.29683
-0.26209
-0.231241
-0.204683
-0.181636
-0.16155
-0.146002
-0.142277
-0.146946
-0.160301
-0.0461601
-0.599374
-1.28883
-1.4546
-0.775233
-0.46495
-0.379924
-0.306243
-0.254552
-0.213922
-0.182924
-0.157979
-0.136425
-0.118272
-0.102959
-0.0912235
-0.0824636
-0.0795183
-0.0876351
-0.105527
-0.139458
-0.169513
-0.70419
-1.39917
-1.24126
-0.581278
-0.279936
-0.229414
-0.173264
-0.135455
-0.107351
-0.0860515
-0.0696598
-0.055739
-0.0442295
-0.0347591
-0.0281966
-0.0243277
-0.0256427
-0.0377102
-0.0563207
-0.084406
-0.063832
-0.577026
-1.33614
-1.32466
-0.627708
-0.332912
-0.265662
-0.204764
-0.163659
-0.133773
-0.111736
-0.0951607
-0.081831
-0.0716892
-0.0638584
-0.0599001
-0.0595168
-0.0647538
-0.0796751
-0.0987297
-0.116867
-0.0683063
-0.585922
-1.33408
-1.43449
-0.71929
-0.379921
-0.344082
-0.276971
-0.231695
-0.198423
-0.174523
-0.157809
-0.145487
-0.137814
-0.133948
-0.135855
-0.142724
-0.156134
-0.182382
-0.212195
-0.235358
0.0378886
-0.645266
-1.5054
