# vtk DataFile Version 2.0
scalar
ASCII
DATASET UNSTRUCTURED_GRID
POINTS 1845 float
-0.0009 0.0 0.0088
0.0948 0.2632 0.0315
0.1906 0.5263 0.0543
0.2864 0.7895 0.0771
0.3822 1.0526 0.0999
0.478 1.3158 0.1227
0.5738 1.5789 0.1455
0.6696 1.8421 0.1683
0.7654 2.1053 0.1911
0.8612 2.3684 0.2139
0.957 2.6316 0.2367
1.0528 2.8947 0.2595
1.1486 3.1579 0.2823
1.2444 3.4211 0.305
1.3402 3.6842 0.3278
1.436 3.9474 0.3506
1.5318 4.2105 0.3734
1.6276 4.4737 0.3962
1.7234 4.7368 0.419
1.8191 5.0 0.4418
-0.0009 0.0 0.0102
0.0949 0.2632 0.033
0.1907 0.5263 0.0558
0.2865 0.7895 0.0785
0.3823 1.0526 0.1013
0.4781 1.3158 0.124
0.5739 1.5789 0.1468
0.6697 1.8421 0.1695
0.7655 2.1053 0.1923
0.8613 2.3684 0.215
0.957 2.6316 0.2378
1.0528 2.8947 0.2605
1.1486 3.1579 0.2833
1.2444 3.4211 0.306
1.3402 3.6842 0.3288
1.436 3.9474 0.3515
1.5318 4.2105 0.3743
1.6276 4.4737 0.397
1.7234 4.7368 0.4198
1.8192 5.0 0.4425
-0.0002 0.0 0.0148
0.0956 0.2632 0.0374
0.1913 0.5263 0.06
0.2871 0.7895 0.0827
0.3829 1.0526 0.1053
0.4786 1.3158 0.1279
0.5744 1.5789 0.1506
0.6702 1.8421 0.1732
0.7659 2.1053 0.1958
0.8617 2.3684 0.2185
0.9575 2.6316 0.2411
1.0532 2.8947 0.2637
1.149 3.1579 0.2864
1.2448 3.4211 0.309
1.3405 3.6842 0.3316
1.4363 3.9474 0.3543
1.5321 4.2105 0.3769
1.6278 4.4737 0.3995
1.7236 4.7368 0.4222
1.8194 5.0 0.4448
0.0021 0.0 0.0222
0.0978 0.2632 0.0446
0.1935 0.5263 0.0671
0.2892 0.7895 0.0895
0.3849 1.0526 0.112
0.4806 1.3158 0.1344
0.5763 1.5789 0.1568
0.672 1.8421 0.1793
0.7677 2.1053 0.2017
0.8634 2.3684 0.2242
0.9591 2.6316 0.2466
1.0548 2.8947 0.269
1.1505 3.1579 0.2915
1.2462 3.4211 0.3139
1.3419 3.6842 0.3364
1.4376 3.9474 0.3588
1.5332 4.2105 0.3813
1.6289 4.4737 0.4037
1.7246 4.7368 0.4261
1.8203 5.0 0.4486
0.0077 0.0 0.0322
0.1032 0.2632 0.0544
0.1988 0.5263 0.0766
0.2943 0.7895 0.0988
0.3898 1.0526 0.121
0.4854 1.3158 0.1431
0.5809 1.5789 0.1653
0.6764 1.8421 0.1875
0.772 2.1053 0.2097
0.8675 2.3684 0.2319
0.963 2.6316 0.2541
1.0586 2.8947 0.2762
1.1541 3.1579 0.2984
1.2497 3.4211 0.3206
1.3452 3.6842 0.3428
1.4407 3.9474 0.365
1.5363 4.2105 0.3872
1.6318 4.4737 0.4094
1.7273 4.7368 0.4315
1.8229 5.0 0.4537
0.018 0.0 0.0444
0.1132 0.2632 0.0663
0.2085 0.5263 0.0881
0.3037 0.7895 0.11
0.3989 1.0526 0.1319
0.4942 1.3158 0.1538
0.5894 1.5789 0.1757
0.6847 1.8421 0.1975
0.7799 2.1053 0.2194
0.8752 2.3684 0.2413
0.9704 2.6316 0.2632
1.0657 2.8947 0.285
1.1609 3.1579 0.3069
1.2562 3.4211 0.3288
1.3514 3.6842 0.3507
1.4467 3.9474 0.3726
1.5419 4.2105 0.3944
1.6372 4.4737 0.4163
1.7324 4.7368 0.4382
1.8277 5.0 0.4601
0.0339 0.0 0.0581
0.1287 0.2632 0.0797
0.2235 0.5263 0.1012
0.3183 0.7895 0.1227
0.4131 1.0526 0.1443
0.5079 1.3158 0.1658
0.6027 1.5789 0.1873
0.6975 1.8421 0.2089
0.7923 2.1053 0.2304
0.8871 2.3684 0.252
0.982 2.6316 0.2735
1.0768 2.8947 0.295
1.1716 3.1579 0.3166
1.2664 3.4211 0.3381
1.3612 3.6842 0.3597
1.456 3.9474 0.3812
1.5508 4.2105 0.4027
1.6456 4.4737 0.4243
1.7404 4.7368 0.4458
1.8352 5.0 0.4673
0.0563 0.0 0.0728
0.1505 0.2632 0.0939
0.2447 0.5263 0.1151
0.3389 0.7895 0.1363
0.4331 1.0526 0.1575
0.5273 1.3158 0.1787
0.6215 1.5789 0.1999
0.7157 1.8421 0.221
0.8099 2.1053 0.2422
0.9041 2.3684 0.2634
0.9983 2.6316 0.2846
1.0925 2.8947 0.3058
1.1867 3.1579 0.327
1.2809 3.4211 0.3481
1.3751 3.6842 0.3693
1.4693 3.9474 0.3905
1.5635 4.2105 0.4117
1.6576 4.4737 0.4329
1.7518 4.7368 0.4541
1.846 5.0 0.4752
0.0857 0.0 0.0875
0.1791 0.2632 0.1084
0.2725 0.5263 0.1292
0.3659 0.7895 0.15
0.4593 1.0526 0.1709
0.5527 1.3158 0.1917
0.6462 1.5789 0.2125
0.7396 1.8421 0.2334
0.833 2.1053 0.2542
0.9264 2.3684 0.2751
1.0198 2.6316 0.2959
1.1132 2.8947 0.3167
1.2066 3.1579 0.3376
1.3 3.4211 0.3584
1.3934 3.6842 0.3792
1.4868 3.9474 0.4001
1.5802 4.2105 0.4209
1.6736 4.4737 0.4417
1.767 4.7368 0.4626
1.8604 5.0 0.4834
0.1225 0.0 0.1016
0.2149 0.2632 0.1221
0.3074 0.5263 0.1426
0.3998 0.7895 0.1631
0.4922 1.0526 0.1836
0.5846 1.3158 0.2041
0.677 1.5789 0.2247
0.7694 1.8421 0.2452
0.8618 2.1053 0.2657
0.9543 2.3684 0.2862
1.0467 2.6316 0.3067
1.1391 2.8947 0.3272
1.2315 3.1579 0.3478
1.3239 3.4211 0.3683
1.4163 3.6842 0.3888
1.5087 3.9474 0.4093
1.6011 4.2105 0.4298
1.6936 4.4737 0.4503
1.786 4.7368 0.4708
1.8784 5.0 0.4914
0.1667 0.0 0.114
0.2579 0.2632 0.1342
0.3491 0.5263 0.1545
0.4404 0.7895 0.1747
0.5316 1.0526 0.195
0.6228 1.3158 0.2152
0.7141 1.5789 0.2355
0.8053 1.8421 0.2557
0.8965 2.1053 0.276
0.9878 2.3684 0.2962
1.079 2.6316 0.3165
1.1702 2.8947 0.3367
1.2615 3.1579 0.357
1.3527 3.4211 0.3772
1.4439 3.6842 0.3975
1.5352 3.9474 0.4177
1.6264 4.2105 0.438
1.7176 4.4737 0.4582
1.8089 4.7368 0.4785
1.9001 5.0 0.4987
0.2179 0.0 0.1239
0.3077 0.2632 0.144
0.3976 0.5263 0.164
0.4875 0.7895 0.1841
0.5774 1.0526 0.2042
0.6672 1.3158 0.2242
0.7571 1.5789 0.2443
0.847 1.8421 0.2643
0.9368 2.1053 0.2844
1.0267 2.3684 0.3044
1.1166 2.6316 0.3245
1.2064 2.8947 0.3446
1.2963 3.1579 0.3646
1.3862 3.4211 0.3847
1.4761 3.6842 0.4047
1.5659 3.9474 0.4248
1.6558 4.2105 0.4448
1.7457 4.4737 0.4649
1.8355 4.7368 0.485
1.9254 5.0 0.505
0.2756 0.0 0.1309
0.364 0.2632 0.1509
0.4523 0.5263 0.1708
0.5407 0.7895 0.1908
0.629 1.0526 0.2107
0.7173 1.3158 0.2307
0.8057 1.5789 0.2506
0.894 1.8421 0.2706
0.9823 2.1053 0.2905
1.0707 2.3684 0.3105
1.159 2.6316 0.3305
1.2474 2.8947 0.3504
1.3357 3.1579 0.3704
1.424 3.4211 0.3903
1.5124 3.6842 0.4103
1.6007 3.9474 0.4302
1.689 4.2105 0.4502
1.7774 4.4737 0.4701
1.8657 4.7368 0.4901
1.9541 5.0 0.51
0.3392 0.0 0.1348
0.4258 0.2632 0.1547
0.5125 0.5263 0.1747
0.5991 0.7895 0.1946
0.6858 1.0526 0.2146
0.7725 1.3158 0.2345
0.8591 1.5789 0.2544
0.9458 1.8421 0.2744
1.0324 2.1053 0.2943
1.1191 2.3684 0.3142
1.2058 2.6316 0.3342
1.2924 2.8947 0.3541
1.3791 3.1579 0.3741
1.4657 3.4211 0.394
1.5524 3.6842 0.4139
1.639 3.9474 0.4339
1.7257 4.2105 0.4538
1.8124 4.4737 0.4738
1.899 4.7368 0.4937
1.9857 5.0 0.5136
0.4076 0.0 0.1359
0.4925 0.2632 0.1559
0.5773 0.5263 0.1759
0.6622 0.7895 0.1959
0.747 1.0526 0.2159
0.8319 1.3158 0.236
0.9167 1.5789 0.256
1.0016 1.8421 0.276
1.0864 2.1053 0.296
1.1713 2.3684 0.316
1.2561 2.6316 0.336
1.341 2.8947 0.356
1.4258 3.1579 0.376
1.5107 3.4211 0.396
1.5955 3.6842 0.416
1.6804 3.9474 0.436
1.7653 4.2105 0.456
1.8501 4.4737 0.476
1.935 4.7368 0.496
2.0198 5.0 0.516
0.4806 0.0 0.1351
0.5635 0.2632 0.1552
0.6465 0.5263 0.1753
0.7294 0.7895 0.1954
0.8123 1.0526 0.2156
0.8953 1.3158 0.2357
0.9782 1.5789 0.2558
1.0611 1.8421 0.2759
1.1441 2.1053 0.2961
1.227 2.3684 0.3162
1.3099 2.6316 0.3363
1.3928 2.8947 0.3564
1.4758 3.1579 0.3766
1.5587 3.4211 0.3967
1.6416 3.6842 0.4168
1.7246 3.9474 0.4369
1.8075 4.2105 0.4571
1.8904 4.4737 0.4772
1.9734 4.7368 0.4973
2.0563 5.0 0.5175
0.558 0.0 0.1324
0.6389 0.2632 0.1527
0.7198 0.5263 0.173
0.8007 0.7895 0.1933
0.8816 1.0526 0.2136
0.9625 1.3158 0.2339
1.0434 1.5789 0.2542
1.1243 1.8421 0.2745
1.2051 2.1053 0.2948
1.286 2.3684 0.3151
1.3669 2.6316 0.3354
1.4478 2.8947 0.3557
1.5287 3.1579 0.376
1.6096 3.4211 0.3963
1.6905 3.6842 0.4166
1.7714 3.9474 0.4369
1.8523 4.2105 0.4572
1.9332 4.4737 0.4775
2.0141 4.7368 0.4978
2.095 5.0 0.5181
0.6391 0.0 0.1279
0.7179 0.2632 0.1484
0.7966 0.5263 0.169
0.8754 0.7895 0.1895
0.9542 1.0526 0.21
1.0329 1.3158 0.2306
1.1117 1.5789 0.2511
1.1905 1.8421 0.2716
1.2692 2.1053 0.2922
1.348 2.3684 0.3127
1.4268 2.6316 0.3332
1.5055 2.8947 0.3538
1.5843 3.1579 0.3743
1.663 3.4211 0.3948
1.7418 3.6842 0.4154
1.8206 3.9474 0.4359
1.8993 4.2105 0.4564
1.9781 4.4737 0.477
2.0569 4.7368 0.4975
2.1356 5.0 0.518
0.7232 0.0 0.1218
0.7997 0.2632 0.1426
0.8763 0.5263 0.1634
0.9528 0.7895 0.1842
1.0294 1.0526 0.205
1.1059 1.3158 0.2258
1.1825 1.5789 0.2467
1.2591 1.8421 0.2675
1.3356 2.1053 0.2883
1.4122 2.3684 0.3091
1.4887 2.6316 0.3299
1.5653 2.8947 0.3507
1.6418 3.1579 0.3715
1.7184 3.4211 0.3923
1.795 3.6842 0.4131
1.8715 3.9474 0.4339
1.9481 4.2105 0.4548
2.0246 4.4737 0.4756
2.1012 4.7368 0.4964
2.1777 5.0 0.5172
0.8093 0.0 0.1142
0.8836 0.2632 0.1354
0.9579 0.5263 0.1565
1.0322 0.7895 0.1776
1.1065 1.0526 0.1987
1.1808 1.3158 0.2199
1.2551 1.5789 0.241
1.3294 1.8421 0.2621
1.4037 2.1053 0.2833
1.478 2.3684 0.3044
1.5523 2.6316 0.3255
1.6266 2.8947 0.3466
1.7009 3.1579 0.3678
1.7752 3.4211 0.3889
1.8495 3.6842 0.41
1.9238 3.9474 0.4311
1.9981 4.2105 0.4523
2.0724 4.4737 0.4734
2.1467 4.7368 0.4945
2.221 5.0 0.5157
0.8967 0.0 0.1054
0.9687 0.2632 0.1269
1.0407 0.5263 0.1484
1.1127 0.7895 0.1698
1.1847 1.0526 0.1913
1.2567 1.3158 0.2128
1.3287 1.5789 0.2343
1.4007 1.8421 0.2558
1.4727 2.1053 0.2772
1.5447 2.3684 0.2987
1.6167 2.6316 0.3202
1.6887 2.8947 0.3417
1.7608 3.1579 0.3632
1.8328 3.4211 0.3846
1.9048 3.6842 0.4061
1.9768 3.9474 0.4276
2.0488 4.2105 0.4491
2.1208 4.4737 0.4706
2.1928 4.7368 0.492
2.2648 5.0 0.5135
0.9844 0.0 0.0955
1.0541 0.2632 0.1173
1.1238 0.5263 0.1392
1.1935 0.7895 0.1611
1.2632 1.0526 0.1829
1.3329 1.3158 0.2048
1.4026 1.5789 0.2267
1.4723 1.8421 0.2485
1.5421 2.1053 0.2704
1.6118 2.3684 0.2923
1.6815 2.6316 0.3141
1.7512 2.8947 0.336
1.8209 3.1579 0.3578
1.8906 3.4211 0.3797
1.9603 3.6842 0.4016
2.03 3.9474 0.4234
2.0997 4.2105 0.4453
2.1694 4.4737 0.4672
2.2392 4.7368 0.489
2.3089 5.0 0.5109
1.0716 0.0 0.0848
1.139 0.2632 0.107
1.2064 0.5263 0.1293
1.2738 0.7895 0.1516
1.3413 1.0526 0.1738
1.4087 1.3158 0.1961
1.4761 1.5789 0.2184
1.5436 1.8421 0.2406
1.611 2.1053 0.2629
1.6784 2.3684 0.2852
1.7458 2.6316 0.3074
1.8133 2.8947 0.3297
1.8807 3.1579 0.352
1.9481 3.4211 0.3742
2.0155 3.6842 0.3965
2.083 3.9474 0.4188
2.1504 4.2105 0.441
2.2178 4.4737 0.4633
2.2853 4.7368 0.4855
2.3527 5.0 0.5078
1.1574 0.0 0.0735
1.2225 0.2632 0.0962
1.2877 0.5263 0.1188
1.3529 0.7895 0.1415
1.4181 1.0526 0.1642
1.4833 1.3158 0.1869
1.5484 1.5789 0.2096
1.6136 1.8421 0.2323
1.6788 2.1053 0.2549
1.744 2.3684 0.2776
1.8092 2.6316 0.3003
1.8744 2.8947 0.323
1.9395 3.1579 0.3457
2.0047 3.4211 0.3683
2.0699 3.6842 0.391
2.1351 3.9474 0.4137
2.2003 4.2105 0.4364
2.2654 4.4737 0.4591
2.3306 4.7368 0.4817
2.3958 5.0 0.5044
1.2409 0.0 0.0618
1.3039 0.2632 0.0849
1.3669 0.5263 0.108
1.4299 0.7895 0.1312
[...]
POINT_DATA 1845
SCALARS cp1 float
LOOKUP_TABLE default
0.942335
0.862737
0.808337
0.791279
0.77846
0.768632
0.762781
0.759655
0.760132
0.773176
0.794226
0.808752
0.818959
0.833677
0.845794
0.860536
0.8757
0.89741
0.870389
0.803744
0.91697
0.834575
0.780975
0.763536
0.749684
0.744719
0.739821
0.741619
0.744494
0.751219
0.753833
0.765098
0.776633
0.794359
0.811634
0.833668
0.851933
0.880308
0.862059
0.815611
0.823708
0.723111
0.658659
0.630672
0.61516
0.605531
0.597926
0.599425
0.604349
0.607275
0.614534
0.625787
0.641206
0.664852
0.691521
0.719917
0.757099
0.800509
0.802781
0.794046
0.604236
0.487495
0.394602
0.359743
0.334728
0.321383
0.316241
0.313282
0.318435
0.327795
0.34578
0.364324
0.385193
0.415125
0.445332
0.485664
0.526639
0.585949
0.628503
0.646632
0.290579
0.170799
0.0581473
0.0148192
-0.0114891
-0.0225026
-0.0303777
-0.0330184
-0.0287532
-0.0197672
-0.0048918
0.0195346
0.0483784
0.0795408
0.117697
0.161806
0.211806
0.283829
0.36092
0.401078
-0.00683542
-0.133142
-0.251456
-0.296497
-0.325728
-0.342598
-0.351745
-0.352534
-0.346974
-0.340263
-0.325055
-0.300872
-0.273076
-0.24398
-0.206978
-0.158768
-0.0941556
-0.0193087
0.0695782
0.126828
-0.257669
-0.391025
-0.509419
-0.551635
-0.580361
-0.597359
-0.605431
-0.606894
-0.603068
-0.594307
-0.578044
-0.557579
-0.535164
-0.506976
-0.472389
-0.424487
-0.367555
-0.299247
-0.201971
-0.128716
-0.463242
-0.596814
-0.71179
-0.75269
-0.778636
-0.793458
-0.799448
-0.799421
-0.796717
-0.790341
-0.778472
-0.762517
-0.739483
-0.70845
-0.674003
-0.633917
-0.587433
-0.526495
-0.426997
-0.339301
-0.629373
-0.754815
-0.860183
-0.89746
-0.921152
-0.934126
-0.940049
-0.94119
-0.938748
-0.933449
-0.923051
-0.908622
-0.889572
-0.862711
-0.830847
-0.794738
-0.74867
-0.689046
-0.590588
-0.495126
-0.754233
-0.863237
-0.955896
-0.988351
-1.00816
-1.02095
-1.02996
-1.03393
-1.03157
-1.02404
-1.0121
-0.999097
-0.98506
-0.96546
-0.938368
-0.903663
-0.858639
-0.800979
-0.701217
-0.597532
-0.828182
-0.917196
-0.995047
-1.02549
-1.04389
-1.05583
-1.06318
-1.06538
-1.06327
-1.05697
-1.04858
-1.03803
-1.02298
-1.00459
-0.981092
-0.950418
-0.9125
-0.864309
-0.764875
-0.65183
-0.854282
-0.920488
-0.980995
-1.00797
-1.02445
-1.03402
-1.03842
-1.03942
-1.03858
-1.03509
-1.02994
-1.02081
-1.00599
-0.988792
-0.968033
-0.941292
-0.907552
-0.866501
-0.769307
-0.646616
-0.833768
-0.878333
-0.921221
-0.942718
-0.955477
-0.96265
-0.966373
-0.968034
-0.967024
-0.964408
-0.960479
-0.952336
-0.9411
-0.926946
-0.908734
-0.88599
-0.855958
-0.818212
-0.722504
-0.590693
-0.77094
-0.801481
-0.828332
-0.845359
-0.85558
-0.861926
-0.865901
-0.867713
-0.866335
-0.86341
-0.859412
-0.852697
-0.843586
-0.831604
-0.81623
-0.797245
-0.771302
-0.737446
-0.645376
-0.508312
-0.699219
-0.718182
-0.731116
-0.743372
-0.752376
-0.758917
-0.762707
-0.764046
-0.763546
-0.760993
-0.756717
-0.750604
-0.743191
-0.732873
-0.719367
-0.701994
-0.678964
-0.648171
-0.561466
-0.426198
-0.648709
-0.65432
-0.658216
-0.666579
-0.673025
-0.676942
-0.678664
-0.679373
-0.679475
-0.677734
-0.673373
-0.667855
-0.661529
-0.652759
-0.640101
-0.62421
-0.603653
-0.574114
-0.491459
-0.362743
-0.60695
-0.602904
-0.602209
-0.607622
-0.611402
-0.613463
-0.614142
-0.614258
-0.614006
-0.61222
-0.609027
-0.604677
-0.598543
-0.590504
-0.579985
-0.565293
-0.544836
-0.516221
-0.437319
-0.3161
-0.562692
-0.55352
-0.548827
-0.551471
-0.553467
-0.555461
-0.556844
-0.557171
-0.556619
-0.554809
-0.552409
-0.548832
-0.542519
-0.535269
-0.526717
-0.513506
-0.494548
-0.467472
-0.392972
-0.281452
-0.520689
-0.507732
-0.499279
-0.499305
-0.50014
-0.501617
-0.503126
-0.503885
-0.503641
-0.501919
-0.499043
-0.494953
-0.489843
-0.483343
-0.474431
-0.462773
-0.446578
-0.420431
-0.351609
-0.252583
-0.481442
-0.465872
-0.455118
-0.452657
-0.452582
-0.453283
-0.453758
-0.453921
-0.453294
-0.451731
-0.449234
-0.445973
-0.442222
-0.43611
-0.426927
-0.415949
-0.400459
-0.373562
-0.310739
-0.222997
-0.441404
-0.424394
-0.412404
-0.408656
-0.40758
-0.407648
-0.4077
-0.40723
-0.406014
-0.404727
-0.40324
-0.40066
-0.396575
-0.390852
-0.383173
-0.372947
-0.35789
-0.331765
-0.274894
-0.197647
-0.400512
-0.38313
-0.370696
-0.366779
-0.364678
-0.364017
-0.363897
-0.363431
-0.363114
-0.362373
-0.360277
-0.357178
-0.35313
-0.348609
-0.342581
-0.332673
-0.317776
-0.293134
-0.243042
-0.177588
-0.363868
-0.345514
-0.332195
-0.327191
-0.324557
-0.323636
-0.323383
-0.322781
-0.322365
-0.321519
-0.319632
-0.317317
-0.314036
-0.309319
-0.303701
-0.294944
-0.280525
-0.256201
-0.212192
-0.156864
-0.327927
-0.309541
-0.295805
-0.290365
-0.2881
-0.287121
-0.287002
-0.286414
-0.284821
-0.283572
-0.282668
-0.281018
-0.27771
-0.272612
-0.267111
-0.259545
-0.246515
-0.223313
-0.184858
-0.13908
-0.291687
-0.274238
-0.261017
-0.256154
-0.254154
-0.252564
-0.251785
-0.251507
-0.250639
-0.249442
-0.247892
-0.245926
-0.24337
-0.239455
-0.234058
-0.22651
-0.214644
-0.193102
-0.160248
-0.124011
-0.259122
-0.241686
-0.22849
-0.222767
-0.220135
-0.218344
-0.216906
-0.216552
-0.216624
-0.215784
-0.213865
-0.211832
-0.210033
-0.206912
-0.201351
-0.193998
-0.183548
-0.163733
-0.136258
-0.108106
-0.227642
-0.210771
-0.198069
-0.191477
-0.188045
-0.186792
-0.185605
-0.18467
-0.18435
-0.183935
-0.183167
-0.181158
-0.178449
-0.17558
-0.170996
-0.164477
-0.154284
-0.13555
-0.113685
-0.0938077
-0.19694
-0.180303
-0.168201
-0.162347
-0.159198
-0.157931
-0.156774
-0.155786
-0.155495
-0.155227
-0.154381
-0.151967
-0.149086
-0.1472
-0.144402
-0.138688
-0.128182
-0.110527
-0.09321
-0.0801768
-0.166643
-0.150641
-0.139149
-0.134451
-0.131481
-0.129511
-0.128521
-0.128102
-0.127834
-0.126846
-0.125217
-0.123492
-0.122144
-0.120719
-0.117421
-0.111196
-0.102098
-0.0872116
-0.0736138
-0.0652102
-0.139089
-0.123606
-0.112754
-0.107594
-0.103796
-0.101755
-0.101908
-0.10247
-0.101658
-0.0998543
-0.0985318
-0.0979709
-0.0969063
-0.0941505
-0.0901898
-0.0856341
-0.0787433
-0.065258
-0.0545268
-0.0511405
-0.112419
-0.0967873
-0.0860581
-0.0809175
-0.0774243
-0.0754717
-0.0756637
-0.0767028
-0.0766491
-0.0754004
-0.0736349
-0.0718593
-0.0699823
-0.0678802
-0.0659366
-0.0632321
-0.0562455
-0.0417458
-0.0339417
-0.0360888
-0.0819271
-0.0686797
-0.0589349
-0.0556474
-0.0532005
-0.0507716
-0.0491822
-0.0491092
-0.0501196
-0.0504481
-0.0489897
-0.0467507
-0.0447026
-0.043451
-0.0422902
-0.0390691
-0.0318099
-0.0182566
-0.0142085
-0.0197723
-0.0603231
-0.0478067
-0.0389741
-0.0357212
-0.033623
-0.0322685
-0.0307114
-0.0295028
-0.0293963
-0.0296238
-0.0294088
-0.0292926
-0.0284892
-0.0261711
-0.0240536
-0.0211496
-0.0151421
-0.00383776
-0.00255144
-0.0130911
-0.046925
-0.032258
-0.0241999
-0.0199628
-0.0175499
-0.0175787
-0.0181471
-0.0175765
-0.0163531
-0.0150711
-0.0132928
-0.0129808
-0.0136509
-0.0126034
-0.0109614
-0.00832167
-0.00211936
0.00903121
0.0084296
-0.00907689
-0.0213252
-0.00715498
-0.000489865
0.00325547
0.0061995
0.00724562
0.00668977
0.00630367
0.00675891
0.00791077
0.010543
0.0126364
0.013534
0.0143359
0.014716
0.0169362
0.0227256
0.0335119
0.031001
0.0111771
0.0210026
0.0334918
0.0388605
0.0420292
0.0456907
0.0472107
0.0469428
0.0473581
0.0471648
0.047346
0.0493101
0.0507757
0.0518633
0.0528886
0.0529279
0.0535324
0.0586662
0.0698219
0.0653094
0.0423775
0.0758515
0.0865915
0.0893495
0.0921542
0.0966558
0.0979463
0.0971112
0.0971806
0.0966062
0.0971129
0.100192
0.10058
0.0993213
0.0995993
0.0996018
0.0995559
0.103919
0.114381
0.107595
0.0778702
0.138292
0.14964
0.148929
0.150736
0.156317
0.15884
0.157158
0.155619
0.154647
0.156075
0.159722
0.160285
0.158705
0.158152
0.157752
0.158142
0.162434
0.170702
0.161632
0.124417
0.209634
0.227809
0.222765
0.224481
0.232783
0.235171
0.231904
0.230379
0.228453
0.229644
0.235353
0.23644
0.235038
0.23439
0.230283
0.228389
0.235367
0.246396
0.23544
0.184053
0.325962
0.336784
0.330512
0.332366
0.343719
0.344273
0.338838
0.339487
0.336649
0.337417
0.346174
0.347001
0.344488
0.345484
0.338415
0.332261
0.342083
0.356539
0.338442
0.279126
0.409992
0.409821
0.405802
0.408057
0.420619
0.419672
0.412973
0.415491
0.41234
0.412404
0.423223
0.422343
0.419557
0.422775
0.415395
0.406708
0.417157
0.436528
0.408849
0.345752
0.422122
0.424774
0.432565
0.432584
0.419601
0.418744
0.427504
0.428198
0.428164
0.426939
0.421067
0.419757
0.418801
0.420004
0.431373
0.4368
0.426969
0.413311
0.401953
0.387373
0.337483
0.352338
0.355874
0.356109
0.345941
0.344875
0.352001
0.353894
0.35483
0.353424
0.347878
0.345827
0.345125
0.34628
0.355345
0.360179
0.351126
0.337746
0.325115
0.291357
0.227844
0.249899
0.251712
0.251503
0.245023
0.244644
0.249878
0.251452
0.252164
0.250769
0.246036
0.245695
0.246855
0.247009
0.2501
0.252759
0.247785
0.239722
0.220453
0.163548
0.169684
0.183196
0.185529
0.185046
0.182505
0.183166
0.185687
0.186245
0.18619
0.185573
0.182809
0.182383
0.183521
0.182531
0.182754
0.184209
0.182011
0.178922
0.153021
0.0945366
0.122204
0.13263
0.136382
0.13759
0.137128
0.137211
0.137768
0.137499
0.137782
0.138147
0.136342
0.134945
0.134074
0.132867
0.133475
0.13462
0.131873
0.127742
0.100516
0.04575
0.0825449
0.0930378
0.0978572
0.0994848
0.0989162
0.0987783
0.099403
0.0996967
0.100242
0.0996536
0.0969988
0.0962848
0.0963671
0.0954563
0.0954994
0.0946063
0.0907125
0.0865056
0.0607635
0.0111749
0.0548629
0.0653544
0.069249
0.0690319
0.0679852
0.068644
0.0702831
0.0712332
0.071533
0.0698186
0.0665215
0.0654998
0.0654456
0.0647855
0.0649836
0.0650106
0.062959
0.0591073
0.0344138
-0.011685
0.0396401
0.0493866
0.0536831
0.0539067
0.0533205
0.0533895
0.0536619
0.0540062
0.0546221
0.0537401
0.0511539
0.0490629
0.0475194
0.0463232
0.0467786
0.0478242
0.0459188
0.0416704
0.0190366
-0.02121
0.0329374
0.0407627
0.0462845
0.0480199
0.0475424
0.0470692
0.047009
0.0471248
0.0478044
0.047605
0.0460201
0.0438826
0.0425024
0.0425415
0.041746
0.03908
0.0347835
0.0305016
0.00981659
-0.0253146
0.0248528
0.0307452
0.0354543
0.0373831
0.0377549
0.0379692
0.0386684
0.0387318
0.0379396
0.0373279
0.0369275
0.0354278
0.034034
0.0334849
0.0317796
0.0281601
0.0236827
0.0197383
5.15983e-05
-0.0329325
0.0118036
0.017854
0.0217867
0.023425
0.0240987
0.0241791
0.0244892
0.024531
0.0234775
0.0221321
0.0214341
0.0206847
0.0193031
0.0169331
0.0144787
0.0122636
0.00835828
0.0037023
-0.013687
-0.0426984
-0.000475308
0.00536803
0.00901704
0.0102886
0.0105504
0.0102624
0.01012
0.0103797
0.0105467
0.00938646
0.00726156
0.00583105
0.00449003
0.00227788
-0.000382965
-0.00353244
-0.00781492
-0.0126948
-0.0278418
-0.0525906
-0.0116151
-0.00697095
-0.00387717
-0.00234083
-0.00167481
-0.00177405
-0.0020224
-0.00238582
-0.00272113
-0.00323686
-0.00498544
-0.00713538
-0.00889036
-0.0104112
-0.0126065
-0.0164997
-0.0209965
-0.0261307
-0.0404584
-0.0623233
-0.0220281
-0.0188275
-0.0166864
-0.0152959
-0.0145366
-0.0144498
-0.0143408
-0.0147558
-0.0159359
-0.01668
-0.0175957
-0.0198336
-0.0222519
-0.0240744
-0.0267862
-0.0309551
-0.0354607
-0.0408886
-0.0528374
-0.0696102
-0.0320291
-0.0296539
-0.0281946
-0.0275904
-0.0274774
-0.0275975
-0.0271428
-0.0265808
-0.0272702
-0.0286945
-0.0299257
-0.0319113
-0.0348602
-0.0379358
-0.0415713
-0.0461635
-0.0515753
-0.0573992
-0.0656648
-0.075974
-0.0425121
-0.0403881
-0.0390745
-0.0387346
-0.03883
-0.0388282
-0.0387459
-0.0384131
-0.0388433
-0.0406383
-0.0424765
-0.044169
-0.0468549
-0.050644
-0.0544747
-0.0588713
-0.0653015
-0.0726246
-0.0793307
-0.0861422
-0.0517843
-0.0508819
-0.0503354
-0.050168
-0.0502421
-0.0499938
-0.0502764
-0.0508594
-0.0512998
-0.0528177
-0.0553906
-0.0576618
-0.0601763
-0.0638271
-0.0676461
-0.0719817
-0.0787088
-0.0868362
-0.0922679
-0.095896
-0.0595374
-0.060389
-0.0610125
-0.0611237
-0.0612956
-0.0611285
-0.0613502
-0.0624562
-0.0632979
-0.0644374
-0.0667065
-0.0689917
-0.0717744
-0.075932
-0.0806986
-0.0859996
-0.0927583
-0.100835
-0.104758
-0.104597
-0.067341
-0.0692576
-0.0708348
-0.0709946
-0.0707934
-0.0708029
-0.0713835
-0.0726521
-0.0738633
-0.0748702
-0.0764958
-0.0789869
-0.0823134
-0.086774
-0.0925641
-0.0991072
-0.1065
-0.115501
-0.118826
-0.116508
-0.0743759
-0.0770924
-0.0796448
-0.0802429
-0.0801091
-0.0804706
-0.0814542
-0.082323
-0.083256
-0.0845138
-0.0867209
-0.0904198
-0.0942621
-0.0981862
-0.103555
-0.110475
-0.119253
-0.130371
-0.13401
-0.131029
-0.0785354
-0.0827257
-0.0864262
-0.0876845
-0.0880704
-0.0885489
-0.0892914
-0.0899969
-0.0911241
-0.0928868
-0.0955409
-0.0993959
-0.103332
-0.107459
-0.113046
-0.120531
-0.130301
-0.14279
-0.147225
-0.144208
-0.0796692
-0.0861891
-0.0914679
-0.0931939
-0.093832
-0.0939942
-0.0941386
-0.0948268
-0.0962554
-0.0983908
-0.101132
-0.104637
-0.109189
-0.114725
-0.12152
-0.130122
-0.140428
-0.153266
-0.158823
-0.157037
-0.0784973
-0.0871692
-0.0940637
-0.0962289
-0.0971606
-0.0972842
-0.0972404
-0.097984
-0.099682
-0.102243
-0.104968
-0.107847
-0.112692
-0.119308
-0.12695
-0.136437
-0.147638
-0.161798
-0.169898
-0.171648
-0.0745323
-0.0847313
-0.0929866
-0.0950002
-0.0957343
-0.0962126
-0.0965322
-0.0972555
-0.0989422
-0.101354
-0.104126
-0.107387
-0.11215
-0.118752
-0.126994
-0.137378
-0.15037
-0.167094
-0.179105
-0.18693
-0.066049
-0.0772006
-0.0867732
-0.0883184
-0.0884433
-0.0888238
-0.0894226
-0.0905093
-0.0921875
-0.0939761
-0.0970766
-0.101993
-0.10748
-0.11415
-0.12304
-0.134281
-0.14866
-0.167149
-0.183542
-0.199847
-0.0497031
-0.0608923
-0.0713876
-0.072676
-0.072382
-0.0720008
-0.0726298
-0.074409
-0.0766479
-0.079147
-0.0828929
-0.0882904
-0.0943001
-0.101396
-0.110652
-0.122294
-0.137006
-0.156367
-0.178251
-0.204881
-0.0183597
-0.0306873
-0.0412874
-0.041863
-0.0413036
-0.0408583
-0.0410292
-0.0417913
-0.0439207
-0.0477482
-0.0521847
-0.0571848
-0.063636
-0.071926
-0.0818114
-0.093635
-0.109264
-0.130656
-0.159999
-0.197876
0.0277378
0.0123538
0.00296182
0.00335361
0.00382353
0.00402033
0.00425482
0.00413659
0.00227702
-0.00166558
-0.00569985
-0.0106382
-0.0181207
-0.0276651
-0.0384797
-0.0512073
-0.0682148
-0.0916317
-0.13015
-0.179579
0.0728758
0.0552288
0.0478169
0.0491404
0.0502403
0.0511854
0.0513708
0.0505116
0.0484528
0.0446172
0.0400092
0.0344475
0.027013
0.0180859
0.00643846
-0.00910511
-0.0272735
-0.0504059
-0.0975098
-0.158447
0.102283
0.08545
0.0800613
0.0834845
0.0861674
0.087408
0.0870216
0.0860349
0.0844643
0.0810058
0.0750649
0.0681449
0.0608079
0.0516954
0.0387953
0.0219813
0.00251812
-0.0214935
-0.0760651
-0.148245
0.115282
0.102275
0.0991165
0.10421
0.108021
0.110051
0.110001
0.108529
0.106567
0.103987
0.0987576
0.0909781
0.0813543
0.0695563
0.055713
0.0391443
0.0171455
-0.0104252
-0.070997
-0.151887
0.117864
0.110488
0.10993
0.116006
0.120554
0.124034
0.125394
0.123784
0.120634
0.117165
0.112396
0.104527
0.0934817
0.0799263
0.0641635
0.0446358
0.0187994
-0.0131337
-0.0797386
-0.168521
0.110392
0.114938
0.119175
0.129221
0.134548
0.137525
0.139042
0.138895
0.136431
0.13117
0.123974
0.114492
0.102571
0.0877399
0.0691243
0.0452094
0.014846
-0.0239457
-0.0994917
-0.205007
0.110085
0.133682
0.142598
0.15758
0.166461
0.170916
0.172289
0.171774
0.169804
0.163787
0.15461
0.142353
0.126107
0.108282
0.0875811
0.0601271
0.022954
-0.0247329
-0.109579
-0.240041
0.147045
0.199577
0.211784
0.231647
0.243604
0.250366
0.253452
0.252434
0.248423
0.242753
0.234371
0.22047
0.2015
0.179286
0.152088
0.119348
0.0768867
0.019647
-0.0733451
-0.240419
0.300767
0.368285
0.387283
0.410295
0.42285
0.432316
0.436669
0.436313
0.430936
0.424705
0.412911
0.398267
0.383357
0.358449
0.325772
0.28542
0.238848
0.174883
0.0740159
-0.124083
0.606922
0.640472
0.664665
0.684381
0.697296
0.704675
0.708651
0.707508
0.705034
0.69926
0.688556
0.677424
0.662827
0.644092
0.615263
0.582321
0.539167
0.481199
0.37029
0.185174
0.893052
0.868135
0.881293
0.891081
0.894878
0.895415
0.897492
0.8977
0.897202
0.896456
0.893784
0.88773
0.882018
0.871574
0.859374
0.844051
0.820658
0.79141
0.690706
0.553915
0.984035
0.926789
0.911947
0.905122
0.900814
0.898129
0.897181
0.895595
0.894473
0.895072
0.898471
0.902209
0.906729
0.911114
0.915098
0.917925
0.917084
0.917396
0.850664
0.763335
0.94039
0.877441
0.839239
0.82057
0.809871
0.804004
0.800744
0.797769
0.799807
0.805132
0.812357
0.822806
0.833444
0.843885
0.85794
0.872755
0.886901
0.905956
0.870913
0.797124
0.906935
0.843528
0.795879
0.775456
0.760947
0.751449
0.744787
0.745778
0.753778
0.762748
0.774518
0.785947
0.795616
0.810377
0.825064
0.841717
0.860478
0.888544
0.865702
0.794619
-82.3367
-70.8662
-58.5717
-73.085
-88.4224
-27.9495
-23.0287
-16.5678
-25.1203
-34.5482
9.50051
-1.00251
-1.1998
-0.923449
10.0907
-2.10759
-1.59407
-1.27014
-1.54858
-2.04604
-1.21062
-1.02713
-0.815672
-0.972272
-1.10288
-0.91551
-0.744994
-0.588122
-0.667587
-0.748579
-0.718129
-0.571148
-0.449555
-0.487439
-0.538326
-0.572879
-0.45451
-0.359872
-0.376805
-0.40847
-0.464284
-0.373472
-0.299465
-0.306247
-0.328615
-0.383456
-0.3144
-0.256917
-0.26124
-0.282179
-0.324502
-0.27176
-0.22697
-0.232929
-0.257186
-0.28297
-0.241372
-0.206191
-0.215219
-0.243808
-0.254901
-0.21995
-0.191484
-0.204032
-0.237141
-0.237124
-0.204855
-0.180337
-0.195184
-0.230693
-0.227811
-0.194795
-0.171224
-0.186022
-0.219812
-0.225681
-0.188695
-0.163544
-0.175976
-0.204742
-0.228283
-0.185449
-0.156943
-0.165658
-0.18815
-0.234402
-0.184309
-0.151336
-0.156096
-0.172395
-0.24326
-0.184932
-0.146741
-0.147848
-0.158937
-0.253264
-0.186403
-0.143006
-0.140953
-0.147682
-0.263668
-0.188802
-0.139994
-0.135193
-0.138338
-0.276093
-0.192084
-0.137809
-0.130298
-0.12999
-0.289161
-0.19651
-0.136398
-0.126416
-0.122943
-0.303003
-0.20181
-0.136071
-0.12399
-0.118156
-0.318976
-0.208661
-0.137059
-0.12296
-0.115236
-0.335414
-0.216395
-0.138933
-0.12288
-0.113016
-0.353656
-0.225719
-0.142312
-0.124485
-0.113064
-0.374032
-0.236895
-0.147825
-0.128319
-0.115898
-0.396513
-0.250053
-0.154357
-0.133326
-0.119641
-0.419528
-0.265006
-0.162835
-0.140269
-0.125515
-0.445455
-0.281186
-0.173676
-0.149885
-0.134681
-0.473523
-0.3009
-0.186731
-0.162847
-0.147855
-0.502701
-0.323324
-0.20287
-0.178898
-0.165059
-0.544787
-0.351822
-0.223903
-0.198869
-0.186102
-0.591842
-0.387059
-0.248923
-0.222441
-0.208052
-0.646723
-0.430877
-0.283199
-0.257118
-0.239192
-0.725887
-0.503187
-0.340916
-0.317488
-0.294699
-0.837608
-0.625894
-0.446625
-0.432213
-0.391998
-1.01599
-0.877971
-0.673669
-0.676442
-0.580386
-1.82409
-1.61888
-1.37695
-1.38815
-1.43038
-2.50537
-2.29637
-2.03089
-2.03699
-2.09956
